Variables = "x [mm]"	"y [mm]"	"z [mm]"	"x/B"	"y/B"	"z/B"	"C*"	"C*std"	
Zone T = "Trees_West_y=136mm_Tec" I=17 J=25 F=POINT
 -20.0000	 148.0000	   5.0000	  -0.4348	   3.2174	   0.1087	 133.9364	  64.2652	
 -17.5000	 148.0000	   5.0000	  -0.3804	   3.2174	   0.1087	 142.6862	  88.8425	
 -15.0000	 148.0000	   5.0000	  -0.3261	   3.2174	   0.1087	 151.5175	 113.5550	
 -12.5000	 148.0000	   5.0000	  -0.2717	   3.2174	   0.1087	 160.3487	 138.2675	
 -10.0000	 148.0000	   5.0000	  -0.2174	   3.2174	   0.1087	 169.1800	 162.9800	
  -7.5000	 148.0000	   5.0000	  -0.1630	   3.2174	   0.1087	 142.1475	 153.3225	
  -5.0000	 148.0000	   5.0000	  -0.1087	   3.2174	   0.1087	 115.1150	 143.6650	
  -2.5000	 148.0000	   5.0000	  -0.0543	   3.2174	   0.1087	  88.0825	 134.0075	
   0.0000	 148.0000	   5.0000	   0.0000	   3.2174	   0.1087	  61.0500	 124.3500	
   2.5000	 148.0000	   5.0000	   0.0543	   3.2174	   0.1087	  49.7925	 100.6775	
   5.0000	 148.0000	   5.0000	   0.1087	   3.2174	   0.1087	  38.5350	  77.0050	
   7.5000	 148.0000	   5.0000	   0.1630	   3.2174	   0.1087	  27.2775	  53.3325	
  10.0000	 148.0000	   5.0000	   0.2174	   3.2174	   0.1087	  16.0200	  29.6600	
  12.5000	 148.0000	   5.0000	   0.2717	   3.2174	   0.1087	  14.4700	  25.9275	
  15.0000	 148.0000	   5.0000	   0.3261	   3.2174	   0.1087	  12.9200	  22.1950	
  17.5000	 148.0000	   5.0000	   0.3804	   3.2174	   0.1087	  11.3700	  18.4625	
  20.0000	 148.0000	   5.0000	   0.4348	   3.2174	   0.1087	   9.8200	  14.7300	
 -20.0000	 148.0000	   7.5000	  -0.4348	   3.2174	   0.1630	 121.1981	  63.0241	
 -17.5000	 148.0000	   7.5000	  -0.3804	   3.2174	   0.1630	 126.7708	  81.7864	
 -15.0000	 148.0000	   7.5000	  -0.3261	   3.2174	   0.1630	 132.0247	 100.5559	
 -12.5000	 148.0000	   7.5000	  -0.2717	   3.2174	   0.1630	 137.2786	 119.3255	
 -10.0000	 148.0000	   7.5000	  -0.2174	   3.2174	   0.1630	 137.3128	 132.8945	
  -7.5000	 148.0000	   7.5000	  -0.1630	   3.2174	   0.1630	 119.7956	 128.9769	
  -5.0000	 148.0000	   7.5000	  -0.1087	   3.2174	   0.1630	  97.0588	 119.8587	
  -2.5000	 148.0000	   7.5000	  -0.0543	   3.2174	   0.1630	  74.3219	 110.7406	
   0.0000	 148.0000	   7.5000	   0.0000	   3.2174	   0.1630	  53.9073	  99.9767	
   2.5000	 148.0000	   7.5000	   0.0543	   3.2174	   0.1630	  42.3950	  82.9037	
   5.0000	 148.0000	   7.5000	   0.1087	   3.2174	   0.1630	  33.2050	  64.1850	
   7.5000	 148.0000	   7.5000	   0.1630	   3.2174	   0.1630	  24.0150	  45.4663	
  10.0000	 148.0000	   7.5000	   0.2174	   3.2174	   0.1630	  16.1654	  29.3974	
  12.5000	 148.0000	   7.5000	   0.2717	   3.2174	   0.1630	  13.4538	  23.4862	
  15.0000	 148.0000	   7.5000	   0.3261	   3.2174	   0.1630	  12.0825	  20.2250	
  17.5000	 148.0000	   7.5000	   0.3804	   3.2174	   0.1630	  10.7112	  16.9638	
  20.0000	 148.0000	   7.5000	   0.4348	   3.2174	   0.1630	   9.3400	  13.7025	
 -20.0000	 148.0000	  10.0000	  -0.4348	   3.2174	   0.2174	 108.4599	  61.7829	
 -17.5000	 148.0000	  10.0000	  -0.3804	   3.2174	   0.2174	 110.8553	  74.7303	
 -15.0000	 148.0000	  10.0000	  -0.3261	   3.2174	   0.2174	 112.5319	  87.5569	
 -12.5000	 148.0000	  10.0000	  -0.2717	   3.2174	   0.2174	 114.2084	 100.3834	
 -10.0000	 148.0000	  10.0000	  -0.2174	   3.2174	   0.2174	 111.0519	 108.0676	
  -7.5000	 148.0000	  10.0000	  -0.1630	   3.2174	   0.2174	  97.4438	 104.6312	
  -5.0000	 148.0000	  10.0000	  -0.1087	   3.2174	   0.2174	  79.0025	  96.0525	
  -2.5000	 148.0000	  10.0000	  -0.0543	   3.2174	   0.2174	  60.5612	  87.4737	
   0.0000	 148.0000	  10.0000	   0.0000	   3.2174	   0.2174	  44.6353	  77.7425	
   2.5000	 148.0000	  10.0000	   0.0543	   3.2174	   0.2174	  34.9975	  65.1300	
   5.0000	 148.0000	  10.0000	   0.1087	   3.2174	   0.2174	  27.8750	  51.3650	
   7.5000	 148.0000	  10.0000	   0.1630	   3.2174	   0.2174	  20.7525	  37.6000	
  10.0000	 148.0000	  10.0000	   0.2174	   3.2174	   0.2174	  14.9478	  26.2739	
  12.5000	 148.0000	  10.0000	   0.2717	   3.2174	   0.2174	  12.4375	  21.0450	
  15.0000	 148.0000	  10.0000	   0.3261	   3.2174	   0.2174	  11.2450	  18.2550	
  17.5000	 148.0000	  10.0000	   0.3804	   3.2174	   0.2174	  10.0525	  15.4650	
  20.0000	 148.0000	  10.0000	   0.4348	   3.2174	   0.2174	   8.8600	  12.6750	
 -20.0000	 148.0000	  12.5000	  -0.4348	   3.2174	   0.2717	  95.7217	  60.5418	
 -17.5000	 148.0000	  12.5000	  -0.3804	   3.2174	   0.2717	  94.9398	  67.6742	
 -15.0000	 148.0000	  12.5000	  -0.3261	   3.2174	   0.2717	  93.0391	  74.5578	
 -12.5000	 148.0000	  12.5000	  -0.2717	   3.2174	   0.2717	  91.1383	  81.4414	
 -10.0000	 148.0000	  12.5000	  -0.2174	   3.2174	   0.2717	  86.9541	  85.5422	
  -7.5000	 148.0000	  12.5000	  -0.1630	   3.2174	   0.2717	  75.0919	  80.2856	
  -5.0000	 148.0000	  12.5000	  -0.1087	   3.2174	   0.2717	  60.9462	  72.2462	
  -2.5000	 148.0000	  12.5000	  -0.0543	   3.2174	   0.2717	  46.8006	  64.2069	
   0.0000	 148.0000	  12.5000	   0.0000	   3.2174	   0.2717	  34.2134	  56.0352	
   2.5000	 148.0000	  12.5000	   0.0543	   3.2174	   0.2717	  27.6000	  47.3563	
   5.0000	 148.0000	  12.5000	   0.1087	   3.2174	   0.2717	  22.5450	  38.5450	
   7.5000	 148.0000	  12.5000	   0.1630	   3.2174	   0.2717	  17.4900	  29.7338	
  10.0000	 148.0000	  12.5000	   0.2174	   3.2174	   0.2717	  13.1278	  22.0355	
  12.5000	 148.0000	  12.5000	   0.2717	   3.2174	   0.2717	  11.4213	  18.6038	
  15.0000	 148.0000	  12.5000	   0.3261	   3.2174	   0.2717	  10.4075	  16.2850	
  17.5000	 148.0000	  12.5000	   0.3804	   3.2174	   0.2717	   9.3938	  13.9662	
  20.0000	 148.0000	  12.5000	   0.4348	   3.2174	   0.2717	   8.3800	  11.6475	
 -20.0000	 148.0000	  15.0000	  -0.4348	   3.2174	   0.3261	  82.9834	  59.3007	
 -17.5000	 148.0000	  15.0000	  -0.3804	   3.2174	   0.3261	  79.4150	  60.7311	
 -15.0000	 148.0000	  15.0000	  -0.3261	   3.2174	   0.3261	  75.5466	  62.7593	
 -12.5000	 148.0000	  15.0000	  -0.2717	   3.2174	   0.3261	  70.3915	  64.3183	
 -10.0000	 148.0000	  15.0000	  -0.2174	   3.2174	   0.3261	  62.5900	  63.4400	
  -7.5000	 148.0000	  15.0000	  -0.1630	   3.2174	   0.3261	  55.8958	  59.3035	
  -5.0000	 148.0000	  15.0000	  -0.1087	   3.2174	   0.3261	  46.2311	  52.7886	
  -2.5000	 148.0000	  15.0000	  -0.0543	   3.2174	   0.3261	  35.0391	  44.2857	
   0.0000	 148.0000	  15.0000	   0.0000	   3.2174	   0.3261	  23.1900	  33.4400	
   2.5000	 148.0000	  15.0000	   0.0543	   3.2174	   0.3261	  21.3018	  32.1269	
   5.0000	 148.0000	  15.0000	   0.1087	   3.2174	   0.3261	  18.2233	  27.9961	
   7.5000	 148.0000	  15.0000	   0.1630	   3.2174	   0.3261	  14.6839	  22.8271	
  10.0000	 148.0000	  15.0000	   0.2174	   3.2174	   0.3261	  11.2400	  18.0100	
  12.5000	 148.0000	  15.0000	   0.2717	   3.2174	   0.3261	  10.5250	  16.3054	
  15.0000	 148.0000	  15.0000	   0.3261	   3.2174	   0.3261	   9.7061	  14.4689	
  17.5000	 148.0000	  15.0000	   0.3804	   3.2174	   0.3261	   8.8250	  12.5620	
  20.0000	 148.0000	  15.0000	   0.4348	   3.2174	   0.3261	   7.9000	  10.6200	
 -20.0000	 148.0000	  17.5000	  -0.4348	   3.2174	   0.3804	  77.8032	  55.7528	
 -17.5000	 148.0000	  17.5000	  -0.3804	   3.2174	   0.3804	  73.7211	  56.6314	
 -15.0000	 148.0000	  17.5000	  -0.3261	   3.2174	   0.3804	  68.3891	  57.1634	
 -12.5000	 148.0000	  17.5000	  -0.2717	   3.2174	   0.3804	  63.0570	  57.6955	
 -10.0000	 148.0000	  17.5000	  -0.2174	   3.2174	   0.3804	  57.0544	  56.8206	
  -7.5000	 148.0000	  17.5000	  -0.1630	   3.2174	   0.3804	  48.7969	  51.2150	
  -5.0000	 148.0000	  17.5000	  -0.1087	   3.2174	   0.3804	  39.8687	  44.2025	
  -2.5000	 148.0000	  17.5000	  -0.0543	   3.2174	   0.3804	  30.9406	  37.1900	
   0.0000	 148.0000	  17.5000	   0.0000	   3.2174	   0.3804	  23.0639	  30.7751	
   2.5000	 148.0000	  17.5000	   0.0543	   3.2174	   0.3804	  19.2175	  26.6512	
   5.0000	 148.0000	  17.5000	   0.1087	   3.2174	   0.3804	  16.4225	  23.1250	
   7.5000	 148.0000	  17.5000	   0.1630	   3.2174	   0.3804	  13.6275	  19.5988	
  10.0000	 148.0000	  17.5000	   0.2174	   3.2174	   0.3804	  11.1841	  16.4169	
  12.5000	 148.0000	  17.5000	   0.2717	   3.2174	   0.3804	  10.0888	  14.5550	
  15.0000	 148.0000	  17.5000	   0.3261	   3.2174	   0.3804	   9.3450	  13.0375	
  17.5000	 148.0000	  17.5000	   0.3804	   3.2174	   0.3804	   8.6013	  11.5200	
  20.0000	 148.0000	  17.5000	   0.4348	   3.2174	   0.3804	   7.8575	  10.0025	
 -20.0000	 148.0000	  20.0000	  -0.4348	   3.2174	   0.4348	  72.6229	  52.2050	
 -17.5000	 148.0000	  20.0000	  -0.3804	   3.2174	   0.4348	  68.4178	  52.6447	
 -15.0000	 148.0000	  20.0000	  -0.3261	   3.2174	   0.4348	  63.2319	  52.7681	
 -12.5000	 148.0000	  20.0000	  -0.2717	   3.2174	   0.4348	  58.0459	  52.8916	
 -10.0000	 148.0000	  20.0000	  -0.2174	   3.2174	   0.4348	  52.1824	  51.4178	
  -7.5000	 148.0000	  20.0000	  -0.1630	   3.2174	   0.4348	  44.8538	  46.4900	
  -5.0000	 148.0000	  20.0000	  -0.1087	   3.2174	   0.4348	  36.8475	  39.9650	
  -2.5000	 148.0000	  20.0000	  -0.0543	   3.2174	   0.4348	  28.8413	  33.4400	
   0.0000	 148.0000	  20.0000	   0.0000	   3.2174	   0.4348	  22.0358	  27.6550	
   2.5000	 148.0000	  20.0000	   0.0543	   3.2174	   0.4348	  18.2325	  23.7200	
   5.0000	 148.0000	  20.0000	   0.1087	   3.2174	   0.4348	  15.6300	  20.5250	
   7.5000	 148.0000	  20.0000	   0.1630	   3.2174	   0.4348	  13.0275	  17.3300	
  10.0000	 148.0000	  20.0000	   0.2174	   3.2174	   0.4348	  10.8583	  14.5811	
  12.5000	 148.0000	  20.0000	   0.2717	   3.2174	   0.4348	   9.7725	  12.9475	
  15.0000	 148.0000	  20.0000	   0.3261	   3.2174	   0.4348	   9.1200	  11.7600	
  17.5000	 148.0000	  20.0000	   0.3804	   3.2174	   0.4348	   8.4675	  10.5725	
  20.0000	 148.0000	  20.0000	   0.4348	   3.2174	   0.4348	   7.8150	   9.3850	
 -20.0000	 148.0000	  22.5000	  -0.4348	   3.2174	   0.4891	  67.4427	  48.6572	
 -17.5000	 148.0000	  22.5000	  -0.3804	   3.2174	   0.4891	  63.1145	  48.6580	
 -15.0000	 148.0000	  22.5000	  -0.3261	   3.2174	   0.4891	  58.0747	  48.3728	
 -12.5000	 148.0000	  22.5000	  -0.2717	   3.2174	   0.4891	  53.0348	  48.0877	
 -10.0000	 148.0000	  22.5000	  -0.2174	   3.2174	   0.4891	  47.6137	  46.7298	
  -7.5000	 148.0000	  22.5000	  -0.1630	   3.2174	   0.4891	  40.9106	  41.7650	
  -5.0000	 148.0000	  22.5000	  -0.1087	   3.2174	   0.4891	  33.8263	  35.7275	
  -2.5000	 148.0000	  22.5000	  -0.0543	   3.2174	   0.4891	  26.7419	  29.6900	
   0.0000	 148.0000	  22.5000	   0.0000	   3.2174	   0.4891	  20.4588	  24.1966	
   2.5000	 148.0000	  22.5000	   0.0543	   3.2174	   0.4891	  17.2475	  20.7888	
   5.0000	 148.0000	  22.5000	   0.1087	   3.2174	   0.4891	  14.8375	  17.9250	
   7.5000	 148.0000	  22.5000	   0.1630	   3.2174	   0.4891	  12.4275	  15.0612	
  10.0000	 148.0000	  22.5000	   0.2174	   3.2174	   0.4891	  10.3344	  12.5414	
  12.5000	 148.0000	  22.5000	   0.2717	   3.2174	   0.4891	   9.4563	  11.3400	
  15.0000	 148.0000	  22.5000	   0.3261	   3.2174	   0.4891	   8.8950	  10.4825	
  17.5000	 148.0000	  22.5000	   0.3804	   3.2174	   0.4891	   8.3338	   9.6250	
  20.0000	 148.0000	  22.5000	   0.4348	   3.2174	   0.4891	   7.7725	   8.7675	
 -20.0000	 148.0000	  25.0000	  -0.4348	   3.2174	   0.5435	  62.2625	  45.1094	
 -17.5000	 148.0000	  25.0000	  -0.3804	   3.2174	   0.5435	  57.9221	  44.7355	
 -15.0000	 148.0000	  25.0000	  -0.3261	   3.2174	   0.5435	  53.3727	  44.2489	
 -12.5000	 148.0000	  25.0000	  -0.2717	   3.2174	   0.5435	  48.4757	  43.5597	
 -10.0000	 148.0000	  25.0000	  -0.2174	   3.2174	   0.5435	  43.1300	  42.5900	
  -7.5000	 148.0000	  25.0000	  -0.1630	   3.2174	   0.5435	  37.5349	  37.4721	
  -5.0000	 148.0000	  25.0000	  -0.1087	   3.2174	   0.5435	  31.4400	  32.0892	
  -2.5000	 148.0000	  25.0000	  -0.0543	   3.2174	   0.5435	  25.0548	  26.4323	
   0.0000	 148.0000	  25.0000	   0.0000	   3.2174	   0.5435	  18.4800	  20.3900	
   2.5000	 148.0000	  25.0000	   0.0543	   3.2174	   0.5435	  16.5656	  18.3408	
   5.0000	 148.0000	  25.0000	   0.1087	   3.2174	   0.5435	  14.3969	  15.9008	
   7.5000	 148.0000	  25.0000	   0.1630	   3.2174	   0.5435	  12.0674	  13.1976	
  10.0000	 148.0000	  25.0000	   0.2174	   3.2174	   0.5435	   9.6100	  10.2600	
  12.5000	 148.0000	  25.0000	   0.2717	   3.2174	   0.5435	   9.2913	  10.0128	
  15.0000	 148.0000	  25.0000	   0.3261	   3.2174	   0.5435	   8.7922	   9.4572	
  17.5000	 148.0000	  25.0000	   0.3804	   3.2174	   0.5435	   8.2373	   8.7864	
  20.0000	 148.0000	  25.0000	   0.4348	   3.2174	   0.5435	   7.7300	   8.1500	
 -20.0000	 148.0000	  27.5000	  -0.4348	   3.2174	   0.5978	  59.7032	  43.1121	
 -17.5000	 148.0000	  27.5000	  -0.3804	   3.2174	   0.5978	  55.5205	  42.4295	
 -15.0000	 148.0000	  27.5000	  -0.3261	   3.2174	   0.5978	  51.0228	  41.5272	
 -12.5000	 148.0000	  27.5000	  -0.2717	   3.2174	   0.5978	  46.5252	  40.6248	
 -10.0000	 148.0000	  27.5000	  -0.2174	   3.2174	   0.5978	  41.8046	  38.9795	
  -7.5000	 148.0000	  27.5000	  -0.1630	   3.2174	   0.5978	  36.3344	  34.8356	
  -5.0000	 148.0000	  27.5000	  -0.1087	   3.2174	   0.5978	  30.6412	  29.9488	
  -2.5000	 148.0000	  27.5000	  -0.0543	   3.2174	   0.5978	  24.9481	  25.0619	
   0.0000	 148.0000	  27.5000	   0.0000	   3.2174	   0.5978	  19.8522	  20.5963	
   2.5000	 148.0000	  27.5000	   0.0543	   3.2174	   0.5978	  17.0456	  17.7456	
   5.0000	 148.0000	  27.5000	   0.1087	   3.2174	   0.5978	  14.8362	  15.3163	
   7.5000	 148.0000	  27.5000	   0.1630	   3.2174	   0.5978	  12.6269	  12.8869	
  10.0000	 148.0000	  27.5000	   0.2174	   3.2174	   0.5978	  10.6743	  10.7544	
  12.5000	 148.0000	  27.5000	   0.2717	   3.2174	   0.5978	   9.7062	   9.7600	
  15.0000	 148.0000	  27.5000	   0.3261	   3.2174	   0.5978	   8.9950	   9.0625	
  17.5000	 148.0000	  27.5000	   0.3804	   3.2174	   0.5978	   8.2838	   8.3650	
  20.0000	 148.0000	  27.5000	   0.4348	   3.2174	   0.5978	   7.5725	   7.6675	
 -20.0000	 148.0000	  30.0000	  -0.4348	   3.2174	   0.6522	  57.1439	  41.1147	
 -17.5000	 148.0000	  30.0000	  -0.3804	   3.2174	   0.6522	  53.2297	  40.1878	
 -15.0000	 148.0000	  30.0000	  -0.3261	   3.2174	   0.6522	  49.1281	  39.0769	
 -12.5000	 148.0000	  30.0000	  -0.2717	   3.2174	   0.6522	  45.0266	  37.9659	
 -10.0000	 148.0000	  30.0000	  -0.2174	   3.2174	   0.6522	  40.6554	  36.1072	
  -7.5000	 148.0000	  30.0000	  -0.1630	   3.2174	   0.6522	  35.7012	  32.6312	
  -5.0000	 148.0000	  30.0000	  -0.1087	   3.2174	   0.6522	  30.4775	  28.4075	
  -2.5000	 148.0000	  30.0000	  -0.0543	   3.2174	   0.6522	  25.2537	  24.1838	
   0.0000	 148.0000	  30.0000	   0.0000	   3.2174	   0.6522	  20.7017	  20.3817	
   2.5000	 148.0000	  30.0000	   0.0543	   3.2174	   0.6522	  17.8288	  17.6338	
   5.0000	 148.0000	  30.0000	   0.1087	   3.2174	   0.6522	  15.6275	  15.3075	
   7.5000	 148.0000	  30.0000	   0.1630	   3.2174	   0.6522	  13.4262	  12.9812	
  10.0000	 148.0000	  30.0000	   0.2174	   3.2174	   0.6522	  11.5025	  10.9792	
  12.5000	 148.0000	  30.0000	   0.2717	   3.2174	   0.6522	  10.2725	   9.7875	
  15.0000	 148.0000	  30.0000	   0.3261	   3.2174	   0.6522	   9.3200	   8.9200	
  17.5000	 148.0000	  30.0000	   0.3804	   3.2174	   0.6522	   8.3675	   8.0525	
  20.0000	 148.0000	  30.0000	   0.4348	   3.2174	   0.6522	   7.4150	   7.1850	
 -20.0000	 148.0000	  32.5000	  -0.4348	   3.2174	   0.7065	  54.5846	  39.1173	
 -17.5000	 148.0000	  32.5000	  -0.3804	   3.2174	   0.7065	  50.9389	  37.9461	
 -15.0000	 148.0000	  32.5000	  -0.3261	   3.2174	   0.7065	  47.2334	  36.6266	
 -12.5000	 148.0000	  32.5000	  -0.2717	   3.2174	   0.7065	  43.5280	  35.3070	
 -10.0000	 148.0000	  32.5000	  -0.2174	   3.2174	   0.7065	  39.6269	  33.5696	
  -7.5000	 148.0000	  32.5000	  -0.1630	   3.2174	   0.7065	  35.0681	  30.4269	
  -5.0000	 148.0000	  32.5000	  -0.1087	   3.2174	   0.7065	  30.3137	  26.8663	
  -2.5000	 148.0000	  32.5000	  -0.0543	   3.2174	   0.7065	  25.5594	  23.3056	
   0.0000	 148.0000	  32.5000	   0.0000	   3.2174	   0.7065	  21.2441	  19.9743	
   2.5000	 148.0000	  32.5000	   0.0543	   3.2174	   0.7065	  18.6119	  17.5219	
   5.0000	 148.0000	  32.5000	   0.1087	   3.2174	   0.7065	  16.4187	  15.2988	
   7.5000	 148.0000	  32.5000	   0.1630	   3.2174	   0.7065	  14.2256	  13.0756	
  10.0000	 148.0000	  32.5000	   0.2174	   3.2174	   0.7065	  12.2038	  11.0557	
  12.5000	 148.0000	  32.5000	   0.2717	   3.2174	   0.7065	  10.8388	   9.8150	
  15.0000	 148.0000	  32.5000	   0.3261	   3.2174	   0.7065	   9.6450	   8.7775	
  17.5000	 148.0000	  32.5000	   0.3804	   3.2174	   0.7065	   8.4512	   7.7400	
  20.0000	 148.0000	  32.5000	   0.4348	   3.2174	   0.7065	   7.2575	   6.7025	
 -20.0000	 148.0000	  35.0000	  -0.4348	   3.2174	   0.7609	  52.0254	  37.1199	
 -17.5000	 148.0000	  35.0000	  -0.3804	   3.2174	   0.7609	  48.6305	  35.7325	
 -15.0000	 148.0000	  35.0000	  -0.3261	   3.2174	   0.7609	  45.2408	  34.2898	
 -12.5000	 148.0000	  35.0000	  -0.2717	   3.2174	   0.7609	  41.9104	  32.7592	
 -10.0000	 148.0000	  35.0000	  -0.2174	   3.2174	   0.7609	  38.7200	  31.1200	
  -7.5000	 148.0000	  35.0000	  -0.1630	   3.2174	   0.7609	  34.2286	  28.3092	
  -5.0000	 148.0000	  35.0000	  -0.1087	   3.2174	   0.7609	  29.8700	  25.3469	
  -2.5000	 148.0000	  35.0000	  -0.0543	   3.2174	   0.7609	  25.6394	  22.3747	
   0.0000	 148.0000	  35.0000	   0.0000	   3.2174	   0.7609	  21.5800	  19.5300	
   2.5000	 148.0000	  35.0000	   0.0543	   3.2174	   0.7609	  19.1819	  17.3124	
   5.0000	 148.0000	  35.0000	   0.1087	   3.2174	   0.7609	  16.9625	  15.1958	
   7.5000	 148.0000	  35.0000	   0.1630	   3.2174	   0.7609	  14.8562	  13.1223	
  10.0000	 148.0000	  35.0000	   0.2174	   3.2174	   0.7609	  12.8400	  11.0500	
  12.5000	 148.0000	  35.0000	   0.2717	   3.2174	   0.7609	  11.3184	   9.8737	
  15.0000	 148.0000	  35.0000	   0.3261	   3.2174	   0.7609	   9.9356	   8.7453	
  17.5000	 148.0000	  35.0000	   0.3804	   3.2174	   0.7609	   8.5684	   7.5665	
  20.0000	 148.0000	  35.0000	   0.4348	   3.2174	   0.7609	   7.1000	   6.2200	
 -20.0000	 148.0000	  37.5000	  -0.4348	   3.2174	   0.8152	  49.2794	  35.9807	
 -17.5000	 148.0000	  37.5000	  -0.3804	   3.2174	   0.8152	  45.8778	  34.2275	
 -15.0000	 148.0000	  37.5000	  -0.3261	   3.2174	   0.8152	  42.7419	  32.5400	
 -12.5000	 148.0000	  37.5000	  -0.2717	   3.2174	   0.8152	  39.6059	  30.8525	
 -10.0000	 148.0000	  37.5000	  -0.2174	   3.2174	   0.8152	  36.3328	  28.9871	
  -7.5000	 148.0000	  37.5000	  -0.1630	   3.2174	   0.8152	  32.5981	  26.5238	
  -5.0000	 148.0000	  37.5000	  -0.1087	   3.2174	   0.8152	  28.7263	  23.8825	
  -2.5000	 148.0000	  37.5000	  -0.0543	   3.2174	   0.8152	  24.8544	  21.2413	
   0.0000	 148.0000	  37.5000	   0.0000	   3.2174	   0.8152	  21.2953	  18.7320	
   2.5000	 148.0000	  37.5000	   0.0543	   3.2174	   0.8152	  18.9350	  16.7288	
   5.0000	 148.0000	  37.5000	   0.1087	   3.2174	   0.8152	  16.8875	  14.8575	
   7.5000	 148.0000	  37.5000	   0.1630	   3.2174	   0.8152	  14.8400	  12.9863	
  10.0000	 148.0000	  37.5000	   0.2174	   3.2174	   0.8152	  12.9161	  11.2535	
  12.5000	 148.0000	  37.5000	   0.2717	   3.2174	   0.8152	  11.4663	  10.0519	
  15.0000	 148.0000	  37.5000	   0.3261	   3.2174	   0.8152	  10.1400	   8.9887	
  17.5000	 148.0000	  37.5000	   0.3804	   3.2174	   0.8152	   8.8138	   7.9256	
  20.0000	 148.0000	  37.5000	   0.4348	   3.2174	   0.8152	   7.4875	   6.8625	
 -20.0000	 148.0000	  40.0000	  -0.4348	   3.2174	   0.8696	  46.5335	  34.8414	
 -17.5000	 148.0000	  40.0000	  -0.3804	   3.2174	   0.8696	  43.1075	  32.7506	
 -15.0000	 148.0000	  40.0000	  -0.3261	   3.2174	   0.8696	  40.1450	  30.9037	
 -12.5000	 148.0000	  40.0000	  -0.2717	   3.2174	   0.8696	  37.1825	  29.0569	
 -10.0000	 148.0000	  40.0000	  -0.2174	   3.2174	   0.8696	  34.1008	  27.0807	
  -7.5000	 148.0000	  40.0000	  -0.1630	   3.2174	   0.8696	  30.7612	  24.8250	
  -5.0000	 148.0000	  40.0000	  -0.1087	   3.2174	   0.8696	  27.3025	  22.4400	
  -2.5000	 148.0000	  40.0000	  -0.0543	   3.2174	   0.8696	  23.8438	  20.0550	
   0.0000	 148.0000	  40.0000	   0.0000	   3.2174	   0.8696	  20.7292	  17.8394	
   2.5000	 148.0000	  40.0000	   0.0543	   3.2174	   0.8696	  18.4750	  16.0475	
   5.0000	 148.0000	  40.0000	   0.1087	   3.2174	   0.8696	  16.5650	  14.4250	
   7.5000	 148.0000	  40.0000	   0.1630	   3.2174	   0.8696	  14.6550	  12.8025	
  10.0000	 148.0000	  40.0000	   0.2174	   3.2174	   0.8696	  12.8989	  11.3364	
  12.5000	 148.0000	  40.0000	   0.2717	   3.2174	   0.8696	  11.5275	  10.2613	
  15.0000	 148.0000	  40.0000	   0.3261	   3.2174	   0.8696	  10.3100	   9.3425	
  17.5000	 148.0000	  40.0000	   0.3804	   3.2174	   0.8696	   9.0925	   8.4238	
  20.0000	 148.0000	  40.0000	   0.4348	   3.2174	   0.8696	   7.8750	   7.5050	
 -20.0000	 148.0000	  42.5000	  -0.4348	   3.2174	   0.9239	  43.7875	  33.7022	
 -17.5000	 148.0000	  42.5000	  -0.3804	   3.2174	   0.9239	  40.3372	  31.2737	
 -15.0000	 148.0000	  42.5000	  -0.3261	   3.2174	   0.9239	  37.5481	  29.2675	
 -12.5000	 148.0000	  42.5000	  -0.2717	   3.2174	   0.9239	  34.7591	  27.2612	
 -10.0000	 148.0000	  42.5000	  -0.2174	   3.2174	   0.9239	  31.9222	  25.2322	
  -7.5000	 148.0000	  42.5000	  -0.1630	   3.2174	   0.9239	  28.9244	  23.1263	
  -5.0000	 148.0000	  42.5000	  -0.1087	   3.2174	   0.9239	  25.8787	  20.9975	
  -2.5000	 148.0000	  42.5000	  -0.0543	   3.2174	   0.9239	  22.8331	  18.8687	
   0.0000	 148.0000	  42.5000	   0.0000	   3.2174	   0.9239	  20.0058	  16.8694	
   2.5000	 148.0000	  42.5000	   0.0543	   3.2174	   0.9239	  18.0150	  15.3663	
   5.0000	 148.0000	  42.5000	   0.1087	   3.2174	   0.9239	  16.2425	  13.9925	
   7.5000	 148.0000	  42.5000	   0.1630	   3.2174	   0.9239	  14.4700	  12.6188	
  10.0000	 148.0000	  42.5000	   0.2174	   3.2174	   0.9239	  12.8113	  11.3478	
  12.5000	 148.0000	  42.5000	   0.2717	   3.2174	   0.9239	  11.5888	  10.4706	
  15.0000	 148.0000	  42.5000	   0.3261	   3.2174	   0.9239	  10.4800	   9.6963	
  17.5000	 148.0000	  42.5000	   0.3804	   3.2174	   0.9239	   9.3713	   8.9219	
  20.0000	 148.0000	  42.5000	   0.4348	   3.2174	   0.9239	   8.2625	   8.1475	
 -20.0000	 148.0000	  45.0000	  -0.4348	   3.2174	   0.9783	  41.0416	  32.5629	
 -17.5000	 148.0000	  45.0000	  -0.3804	   3.2174	   0.9783	  37.3562	  29.6512	
 -15.0000	 148.0000	  45.0000	  -0.3261	   3.2174	   0.9783	  34.2660	  27.2213	
 -12.5000	 148.0000	  45.0000	  -0.2717	   3.2174	   0.9783	  31.8086	  25.2189	
 -10.0000	 148.0000	  45.0000	  -0.2174	   3.2174	   0.9783	  29.7200	  23.3000	
  -7.5000	 148.0000	  45.0000	  -0.1630	   3.2174	   0.9783	  26.5682	  21.2892	
  -5.0000	 148.0000	  45.0000	  -0.1087	   3.2174	   0.9783	  23.8381	  19.3958	
  -2.5000	 148.0000	  45.0000	  -0.0543	   3.2174	   0.9783	  21.3900	  17.5753	
   0.0000	 148.0000	  45.0000	   0.0000	   3.2174	   0.9783	  19.1900	  15.8100	
   2.5000	 148.0000	  45.0000	   0.0543	   3.2174	   0.9783	  17.2133	  14.5964	
   5.0000	 148.0000	  45.0000	   0.1087	   3.2174	   0.9783	  15.5386	  13.4492	
   7.5000	 148.0000	  45.0000	   0.1630	   3.2174	   0.9783	  14.0382	  12.3526	
  10.0000	 148.0000	  45.0000	   0.2174	   3.2174	   0.9783	  12.6500	  11.3100	
  12.5000	 148.0000	  45.0000	   0.2717	   3.2174	   0.9783	  11.4626	  10.5805	
  15.0000	 148.0000	  45.0000	   0.3261	   3.2174	   0.9783	  10.4225	   9.8947	
  17.5000	 148.0000	  45.0000	   0.3804	   3.2174	   0.9783	   9.4864	   9.2800	
  20.0000	 148.0000	  45.0000	   0.4348	   3.2174	   0.9783	   8.6500	   8.7900	
 -20.0000	 148.0000	  47.5000	  -0.4348	   3.2174	   1.0326	  31.0498	  25.9623	
 -17.5000	 148.0000	  47.5000	  -0.3804	   3.2174	   1.0326	  29.0719	  24.3616	
 -15.0000	 148.0000	  47.5000	  -0.3261	   3.2174	   1.0326	  27.4438	  23.0569	
 -12.5000	 148.0000	  47.5000	  -0.2717	   3.2174	   1.0326	  25.8156	  21.7522	
 -10.0000	 148.0000	  47.5000	  -0.2174	   3.2174	   1.0326	  24.1244	  20.4063	
  -7.5000	 148.0000	  47.5000	  -0.1630	   3.2174	   1.0326	  22.2212	  18.9219	
  -5.0000	 148.0000	  47.5000	  -0.1087	   3.2174	   1.0326	  20.2550	  17.3962	
  -2.5000	 148.0000	  47.5000	  -0.0543	   3.2174	   1.0326	  18.2888	  15.8706	
   0.0000	 148.0000	  47.5000	   0.0000	   3.2174	   1.0326	  16.4503	  14.4594	
   2.5000	 148.0000	  47.5000	   0.0543	   3.2174	   1.0326	  15.1019	  13.4869	
   5.0000	 148.0000	  47.5000	   0.1087	   3.2174	   1.0326	  13.8813	  12.6288	
   7.5000	 148.0000	  47.5000	   0.1630	   3.2174	   1.0326	  12.6606	  11.7706	
  10.0000	 148.0000	  47.5000	   0.2174	   3.2174	   1.0326	  11.5084	  10.9561	
  12.5000	 148.0000	  47.5000	   0.2717	   3.2174	   1.0326	  10.6181	  10.3087	
  15.0000	 148.0000	  47.5000	   0.3261	   3.2174	   1.0326	   9.7963	   9.7050	
  17.5000	 148.0000	  47.5000	   0.3804	   3.2174	   1.0326	   8.9744	   9.1012	
  20.0000	 148.0000	  47.5000	   0.4348	   3.2174	   1.0326	   8.1525	   8.4975	
 -20.0000	 148.0000	  50.0000	  -0.4348	   3.2174	   1.0870	  21.0580	  19.3618	
 -17.5000	 148.0000	  50.0000	  -0.3804	   3.2174	   1.0870	  20.5769	  18.9263	
 -15.0000	 148.0000	  50.0000	  -0.3261	   3.2174	   1.0870	  19.9363	  18.4825	
 -12.5000	 148.0000	  50.0000	  -0.2717	   3.2174	   1.0870	  19.2956	  18.0388	
 -10.0000	 148.0000	  50.0000	  -0.2174	   3.2174	   1.0870	  18.4966	  17.4184	
  -7.5000	 148.0000	  50.0000	  -0.1630	   3.2174	   1.0870	  17.3550	  16.4162	
  -5.0000	 148.0000	  50.0000	  -0.1087	   3.2174	   1.0870	  16.0550	  15.2375	
  -2.5000	 148.0000	  50.0000	  -0.0543	   3.2174	   1.0870	  14.7550	  14.0587	
   0.0000	 148.0000	  50.0000	   0.0000	   3.2174	   1.0870	  13.5647	  13.0106	
   2.5000	 148.0000	  50.0000	   0.0543	   3.2174	   1.0870	  12.6487	  12.2888	
   5.0000	 148.0000	  50.0000	   0.1087	   3.2174	   1.0870	  11.8425	  11.6975	
   7.5000	 148.0000	  50.0000	   0.1630	   3.2174	   1.0870	  11.0362	  11.1062	
  10.0000	 148.0000	  50.0000	   0.2174	   3.2174	   1.0870	  10.2661	  10.5181	
  12.5000	 148.0000	  50.0000	   0.2717	   3.2174	   1.0870	   9.5862	   9.9375	
  15.0000	 148.0000	  50.0000	   0.3261	   3.2174	   1.0870	   8.9425	   9.3600	
  17.5000	 148.0000	  50.0000	   0.3804	   3.2174	   1.0870	   8.2988	   8.7825	
  20.0000	 148.0000	  50.0000	   0.4348	   3.2174	   1.0870	   7.6550	   8.2050	
 -20.0000	 148.0000	  52.5000	  -0.4348	   3.2174	   1.1413	  11.0662	  12.7612	
 -17.5000	 148.0000	  52.5000	  -0.3804	   3.2174	   1.1413	  12.0819	  13.4909	
 -15.0000	 148.0000	  52.5000	  -0.3261	   3.2174	   1.1413	  12.4288	  13.9081	
 -12.5000	 148.0000	  52.5000	  -0.2717	   3.2174	   1.1413	  12.7756	  14.3253	
 -10.0000	 148.0000	  52.5000	  -0.2174	   3.2174	   1.1413	  12.9396	  14.5096	
  -7.5000	 148.0000	  52.5000	  -0.1630	   3.2174	   1.1413	  12.4887	  13.9106	
  -5.0000	 148.0000	  52.5000	  -0.1087	   3.2174	   1.1413	  11.8550	  13.0787	
  -2.5000	 148.0000	  52.5000	  -0.0543	   3.2174	   1.1413	  11.2213	  12.2469	
   0.0000	 148.0000	  52.5000	   0.0000	   3.2174	   1.1413	  10.6290	  11.5020	
   2.5000	 148.0000	  52.5000	   0.0543	   3.2174	   1.1413	  10.1956	  11.0906	
   5.0000	 148.0000	  52.5000	   0.1087	   3.2174	   1.1413	   9.8037	  10.7662	
   7.5000	 148.0000	  52.5000	   0.1630	   3.2174	   1.1413	   9.4119	  10.4419	
  10.0000	 148.0000	  52.5000	   0.2174	   3.2174	   1.1413	   9.0074	  10.0786	
  12.5000	 148.0000	  52.5000	   0.2717	   3.2174	   1.1413	   8.5544	   9.5663	
  15.0000	 148.0000	  52.5000	   0.3261	   3.2174	   1.1413	   8.0887	   9.0150	
  17.5000	 148.0000	  52.5000	   0.3804	   3.2174	   1.1413	   7.6231	   8.4637	
  20.0000	 148.0000	  52.5000	   0.4348	   3.2174	   1.1413	   7.1575	   7.9125	
 -20.0000	 148.0000	  55.0000	  -0.4348	   3.2174	   1.1957	   1.0744	   6.1606	
 -17.5000	 148.0000	  55.0000	  -0.3804	   3.2174	   1.1957	   3.8752	   8.2051	
 -15.0000	 148.0000	  55.0000	  -0.3261	   3.2174	   1.1957	   5.8339	   9.7467	
 -12.5000	 148.0000	  55.0000	  -0.2717	   3.2174	   1.1957	   6.9308	  10.8508	
 -10.0000	 148.0000	  55.0000	  -0.2174	   3.2174	   1.1957	   7.5900	  11.8900	
  -7.5000	 148.0000	  55.0000	  -0.1630	   3.2174	   1.1957	   8.1939	  11.5151	
  -5.0000	 148.0000	  55.0000	  -0.1087	   3.2174	   1.1957	   8.2575	  11.0378	
  -2.5000	 148.0000	  55.0000	  -0.0543	   3.2174	   1.1957	   8.0457	  10.5066	
   0.0000	 148.0000	  55.0000	   0.0000	   3.2174	   1.1957	   7.7200	   9.9500	
   2.5000	 148.0000	  55.0000	   0.0543	   3.2174	   1.1957	   7.9239	   9.8959	
   5.0000	 148.0000	  55.0000	   0.1087	   3.2174	   1.1957	   7.9092	   9.7761	
   7.5000	 148.0000	  55.0000	   0.1630	   3.2174	   1.1957	   7.8285	   9.6832	
  10.0000	 148.0000	  55.0000	   0.2174	   3.2174	   1.1957	   7.8100	   9.7200	
  12.5000	 148.0000	  55.0000	   0.2717	   3.2174	   1.1957	   7.4800	   9.0707	
  15.0000	 148.0000	  55.0000	   0.3261	   3.2174	   1.1957	   7.1625	   8.5333	
  17.5000	 148.0000	  55.0000	   0.3804	   3.2174	   1.1957	   6.8782	   8.0584	
  20.0000	 148.0000	  55.0000	   0.4348	   3.2174	   1.1957	   6.6600	   7.6200	
 -20.0000	 148.0000	  57.5000	  -0.4348	   3.2174	   1.2500	   1.0116	   5.1816	
 -17.5000	 148.0000	  57.5000	  -0.3804	   3.2174	   1.2500	   2.9258	   6.6823	
 -15.0000	 148.0000	  57.5000	  -0.3261	   3.2174	   1.2500	   3.9547	   7.7191	
 -12.5000	 148.0000	  57.5000	  -0.2717	   3.2174	   1.2500	   4.9836	   8.7558	
 -10.0000	 148.0000	  57.5000	  -0.2174	   3.2174	   1.2500	   5.8350	   9.5524	
  -7.5000	 148.0000	  57.5000	  -0.1630	   3.2174	   1.2500	   6.0894	   9.5419	
  -5.0000	 148.0000	  57.5000	  -0.1087	   3.2174	   1.2500	   6.1663	   9.2913	