Variables = "x [mm]"	"y [mm]"	"z [mm]"	"x/B"	"y/B"	"z/B"	"C*"	"C*std"	
Zone T = "Trees_West_y=-136mm_Tec" I=17 J=25 F=POINT
 -20.0000	-142.0000	   5.0000	  -0.4348	  -3.0870	   0.1087	  41.3900	  50.0000	
 -17.5000	-142.0000	   5.0000	  -0.3804	  -3.0870	   0.1087	  53.4175	  61.3325	
 -15.0000	-142.0000	   5.0000	  -0.3261	  -3.0870	   0.1087	  65.4450	  72.6650	
 -12.5000	-142.0000	   5.0000	  -0.2717	  -3.0870	   0.1087	  77.4725	  83.9975	
 -10.0000	-142.0000	   5.0000	  -0.2174	  -3.0870	   0.1087	  89.5000	  95.3300	
  -7.5000	-142.0000	   5.0000	  -0.1630	  -3.0870	   0.1087	  75.3900	  88.2825	
  -5.0000	-142.0000	   5.0000	  -0.1087	  -3.0870	   0.1087	  61.2800	  81.2350	
  -2.5000	-142.0000	   5.0000	  -0.0543	  -3.0870	   0.1087	  47.1700	  74.1875	
   0.0000	-142.0000	   5.0000	   0.0000	  -3.0870	   0.1087	  33.0600	  67.1400	
   2.5000	-142.0000	   5.0000	   0.0543	  -3.0870	   0.1087	  26.5750	  53.3700	
   5.0000	-142.0000	   5.0000	   0.1087	  -3.0870	   0.1087	  20.0900	  39.6000	
   7.5000	-142.0000	   5.0000	   0.1630	  -3.0870	   0.1087	  13.6050	  25.8300	
  10.0000	-142.0000	   5.0000	   0.2174	  -3.0870	   0.1087	   7.1200	  12.0600	
  12.5000	-142.0000	   5.0000	   0.2717	  -3.0870	   0.1087	   6.4575	  10.9050	
  15.0000	-142.0000	   5.0000	   0.3261	  -3.0870	   0.1087	   5.7950	   9.7500	
  17.5000	-142.0000	   5.0000	   0.3804	  -3.0870	   0.1087	   5.1325	   8.5950	
  20.0000	-142.0000	   5.0000	   0.4348	  -3.0870	   0.1087	   4.4700	   7.4400	
 -20.0000	-142.0000	   7.5000	  -0.4348	  -3.0870	   0.1630	  40.6925	  48.1550	
 -17.5000	-142.0000	   7.5000	  -0.3804	  -3.0870	   0.1630	  49.1569	  55.7119	
 -15.0000	-142.0000	   7.5000	  -0.3261	  -3.0870	   0.1630	  57.6213	  63.2688	
 -12.5000	-142.0000	   7.5000	  -0.2717	  -3.0870	   0.1630	  66.0856	  70.8256	
 -10.0000	-142.0000	   7.5000	  -0.2174	  -3.0870	   0.1630	  71.0876	  76.0933	
  -7.5000	-142.0000	   7.5000	  -0.1630	  -3.0870	   0.1630	  62.8169	  72.5856	
  -5.0000	-142.0000	   7.5000	  -0.1087	  -3.0870	   0.1630	  51.0838	  66.7888	
  -2.5000	-142.0000	   7.5000	  -0.0543	  -3.0870	   0.1630	  39.3506	  60.9919	
   0.0000	-142.0000	   7.5000	   0.0000	  -3.0870	   0.1630	  28.7457	  54.3119	
   2.5000	-142.0000	   7.5000	   0.0543	  -3.0870	   0.1630	  22.4656	  44.2469	
   5.0000	-142.0000	   7.5000	   0.1087	  -3.0870	   0.1630	  17.3138	  33.2988	
   7.5000	-142.0000	   7.5000	   0.1630	  -3.0870	   0.1630	  12.1619	  22.3506	
  10.0000	-142.0000	   7.5000	   0.2174	  -3.0870	   0.1630	   7.7775	  13.0978	
  12.5000	-142.0000	   7.5000	   0.2717	  -3.0870	   0.1630	   6.3350	  10.3438	
  15.0000	-142.0000	   7.5000	   0.3261	  -3.0870	   0.1630	   5.6600	   9.2850	
  17.5000	-142.0000	   7.5000	   0.3804	  -3.0870	   0.1630	   4.9850	   8.2263	
  20.0000	-142.0000	   7.5000	   0.4348	  -3.0870	   0.1630	   4.3100	   7.1675	
 -20.0000	-142.0000	  10.0000	  -0.4348	  -3.0870	   0.2174	  39.9950	  46.3100	
 -17.5000	-142.0000	  10.0000	  -0.3804	  -3.0870	   0.2174	  44.8963	  50.0913	
 -15.0000	-142.0000	  10.0000	  -0.3261	  -3.0870	   0.2174	  49.7975	  53.8725	
 -12.5000	-142.0000	  10.0000	  -0.2717	  -3.0870	   0.2174	  54.6987	  57.6537	
 -10.0000	-142.0000	  10.0000	  -0.2174	  -3.0870	   0.2174	  56.4317	  59.5844	
  -7.5000	-142.0000	  10.0000	  -0.1630	  -3.0870	   0.2174	  50.2438	  56.8888	
  -5.0000	-142.0000	  10.0000	  -0.1087	  -3.0870	   0.2174	  40.8875	  52.3425	
  -2.5000	-142.0000	  10.0000	  -0.0543	  -3.0870	   0.2174	  31.5312	  47.7962	
   0.0000	-142.0000	  10.0000	   0.0000	  -3.0870	   0.2174	  23.4056	  42.4544	
   2.5000	-142.0000	  10.0000	   0.0543	  -3.0870	   0.2174	  18.3562	  35.1238	
   5.0000	-142.0000	  10.0000	   0.1087	  -3.0870	   0.2174	  14.5375	  26.9975	
   7.5000	-142.0000	  10.0000	   0.1630	  -3.0870	   0.2174	  10.7187	  18.8712	
  10.0000	-142.0000	  10.0000	   0.2174	  -3.0870	   0.2174	   7.5958	  12.3369	
  12.5000	-142.0000	  10.0000	   0.2717	  -3.0870	   0.2174	   6.2125	   9.7825	
  15.0000	-142.0000	  10.0000	   0.3261	  -3.0870	   0.2174	   5.5250	   8.8200	
  17.5000	-142.0000	  10.0000	   0.3804	  -3.0870	   0.2174	   4.8375	   7.8575	
  20.0000	-142.0000	  10.0000	   0.4348	  -3.0870	   0.2174	   4.1500	   6.8950	
 -20.0000	-142.0000	  12.5000	  -0.4348	  -3.0870	   0.2717	  39.2975	  44.4650	
 -17.5000	-142.0000	  12.5000	  -0.3804	  -3.0870	   0.2717	  40.6356	  44.4706	
 -15.0000	-142.0000	  12.5000	  -0.3261	  -3.0870	   0.2717	  41.9738	  44.4763	
 -12.5000	-142.0000	  12.5000	  -0.2717	  -3.0870	   0.2717	  43.3119	  44.4819	
 -10.0000	-142.0000	  12.5000	  -0.2174	  -3.0870	   0.2717	  43.2241	  43.9216	
  -7.5000	-142.0000	  12.5000	  -0.1630	  -3.0870	   0.2717	  37.6706	  41.1919	
  -5.0000	-142.0000	  12.5000	  -0.1087	  -3.0870	   0.2717	  30.6912	  37.8962	
  -2.5000	-142.0000	  12.5000	  -0.0543	  -3.0870	   0.2717	  23.7119	  34.6006	
   0.0000	-142.0000	  12.5000	   0.0000	  -3.0870	   0.2717	  17.5029	  30.9606	
   2.5000	-142.0000	  12.5000	   0.0543	  -3.0870	   0.2717	  14.2469	  26.0006	
   5.0000	-142.0000	  12.5000	   0.1087	  -3.0870	   0.2717	  11.7613	  20.6962	
   7.5000	-142.0000	  12.5000	   0.1630	  -3.0870	   0.2717	   9.2756	  15.3919	
  10.0000	-142.0000	  12.5000	   0.2174	  -3.0870	   0.2717	   7.0961	  10.8483	
  12.5000	-142.0000	  12.5000	   0.2717	  -3.0870	   0.2717	   6.0900	   9.2212	
  15.0000	-142.0000	  12.5000	   0.3261	  -3.0870	   0.2717	   5.3900	   8.3550	
  17.5000	-142.0000	  12.5000	   0.3804	  -3.0870	   0.2717	   4.6900	   7.4887	
  20.0000	-142.0000	  12.5000	   0.4348	  -3.0870	   0.2717	   3.9900	   6.6225	
 -20.0000	-142.0000	  15.0000	  -0.4348	  -3.0870	   0.3261	  38.6000	  42.6200	
 -17.5000	-142.0000	  15.0000	  -0.3804	  -3.0870	   0.3261	  36.7115	  39.4458	
 -15.0000	-142.0000	  15.0000	  -0.3261	  -3.0870	   0.3261	  35.4714	  36.7808	
 -12.5000	-142.0000	  15.0000	  -0.2717	  -3.0870	   0.3261	  33.6272	  33.3383	
 -10.0000	-142.0000	  15.0000	  -0.2174	  -3.0870	   0.3261	  29.7000	  27.5400	
  -7.5000	-142.0000	  15.0000	  -0.1630	  -3.0870	   0.3261	  27.0791	  27.9971	
  -5.0000	-142.0000	  15.0000	  -0.1087	  -3.0870	   0.3261	  22.5408	  26.3792	
  -2.5000	-142.0000	  15.0000	  -0.0543	  -3.0870	   0.3261	  17.0673	  23.4222	
   0.0000	-142.0000	  15.0000	   0.0000	  -3.0870	   0.3261	  11.2900	  19.3600	
   2.5000	-142.0000	  15.0000	   0.0543	  -3.0870	   0.3261	  10.6904	  18.1856	
   5.0000	-142.0000	  15.0000	   0.1087	  -3.0870	   0.3261	   9.4183	  15.4858	
   7.5000	-142.0000	  15.0000	   0.1630	  -3.0870	   0.3261	   7.9482	  12.2874	
  10.0000	-142.0000	  15.0000	   0.2174	  -3.0870	   0.3261	   6.6800	   9.4300	
  12.5000	-142.0000	  15.0000	   0.2717	  -3.0870	   0.3261	   5.8831	   8.5749	
  15.0000	-142.0000	  15.0000	   0.3261	  -3.0870	   0.3261	   5.1694	   7.7883	
  17.5000	-142.0000	  15.0000	   0.3804	  -3.0870	   0.3261	   4.4949	   7.0482	
  20.0000	-142.0000	  15.0000	   0.4348	  -3.0870	   0.3261	   3.8300	   6.3500	
 -20.0000	-142.0000	  17.5000	  -0.4348	  -3.0870	   0.3804	  35.8825	  40.0725	
 -17.5000	-142.0000	  17.5000	  -0.3804	  -3.0870	   0.3804	  34.0775	  36.7050	
 -15.0000	-142.0000	  17.5000	  -0.3261	  -3.0870	   0.3804	  32.2725	  33.3375	
 -12.5000	-142.0000	  17.5000	  -0.2717	  -3.0870	   0.3804	  30.4675	  29.9700	
 -10.0000	-142.0000	  17.5000	  -0.2174	  -3.0870	   0.3804	  28.1870	  26.8011	
  -7.5000	-142.0000	  17.5000	  -0.1630	  -3.0870	   0.3804	  24.0838	  24.3938	
  -5.0000	-142.0000	  17.5000	  -0.1087	  -3.0870	   0.3804	  19.5050	  22.1850	
  -2.5000	-142.0000	  17.5000	  -0.0543	  -3.0870	   0.3804	  14.9262	  19.9763	
   0.0000	-142.0000	  17.5000	   0.0000	  -3.0870	   0.3804	  10.9448	  17.7377	
   2.5000	-142.0000	  17.5000	   0.0543	  -3.0870	   0.3804	   9.2531	  15.3850	
   5.0000	-142.0000	  17.5000	   0.1087	  -3.0870	   0.3804	   8.1587	  13.0025	
   7.5000	-142.0000	  17.5000	   0.1630	  -3.0870	   0.3804	   7.0644	  10.6200	
  10.0000	-142.0000	  17.5000	   0.2174	  -3.0870	   0.3804	   6.0518	   8.5371	
  12.5000	-142.0000	  17.5000	   0.2717	  -3.0870	   0.3804	   5.3525	   7.6025	
  15.0000	-142.0000	  17.5000	   0.3261	  -3.0870	   0.3804	   4.7350	   6.9675	
  17.5000	-142.0000	  17.5000	   0.3804	  -3.0870	   0.3804	   4.1175	   6.3325	
  20.0000	-142.0000	  17.5000	   0.4348	  -3.0870	   0.3804	   3.5000	   5.6975	
 -20.0000	-142.0000	  20.0000	  -0.4348	  -3.0870	   0.4348	  33.1650	  37.5250	
 -17.5000	-142.0000	  20.0000	  -0.3804	  -3.0870	   0.4348	  31.7800	  34.5600	
 -15.0000	-142.0000	  20.0000	  -0.3261	  -3.0870	   0.4348	  30.3950	  31.5950	
 -12.5000	-142.0000	  20.0000	  -0.2717	  -3.0870	   0.4348	  29.0100	  28.6300	
 -10.0000	-142.0000	  20.0000	  -0.2174	  -3.0870	   0.4348	  26.9206	  25.7967	
  -7.5000	-142.0000	  20.0000	  -0.1630	  -3.0870	   0.4348	  23.0700	  23.2925	
  -5.0000	-142.0000	  20.0000	  -0.1087	  -3.0870	   0.4348	  18.5150	  20.9200	
  -2.5000	-142.0000	  20.0000	  -0.0543	  -3.0870	   0.4348	  13.9600	  18.5475	
   0.0000	-142.0000	  20.0000	   0.0000	  -3.0870	   0.4348	  10.1869	  16.1950	
   2.5000	-142.0000	  20.0000	   0.0543	  -3.0870	   0.4348	   8.3688	  13.8925	
   5.0000	-142.0000	  20.0000	   0.1087	  -3.0870	   0.4348	   7.3325	  11.6100	
   7.5000	-142.0000	  20.0000	   0.1630	  -3.0870	   0.4348	   6.2962	   9.3275	
  10.0000	-142.0000	  20.0000	   0.2174	  -3.0870	   0.4348	   5.3742	   7.4411	
  12.5000	-142.0000	  20.0000	   0.2717	  -3.0870	   0.4348	   4.7375	   6.5450	
  15.0000	-142.0000	  20.0000	   0.3261	  -3.0870	   0.4348	   4.2150	   6.0450	
  17.5000	-142.0000	  20.0000	   0.3804	  -3.0870	   0.4348	   3.6925	   5.5450	
  20.0000	-142.0000	  20.0000	   0.4348	  -3.0870	   0.4348	   3.1700	   5.0450	
 -20.0000	-142.0000	  22.5000	  -0.4348	  -3.0870	   0.4891	  30.4475	  34.9775	
 -17.5000	-142.0000	  22.5000	  -0.3804	  -3.0870	   0.4891	  29.4825	  32.4150	
 -15.0000	-142.0000	  22.5000	  -0.3261	  -3.0870	   0.4891	  28.5175	  29.8525	
 -12.5000	-142.0000	  22.5000	  -0.2717	  -3.0870	   0.4891	  27.5525	  27.2900	
 -10.0000	-142.0000	  22.5000	  -0.2174	  -3.0870	   0.4891	  25.9761	  24.7320	
  -7.5000	-142.0000	  22.5000	  -0.1630	  -3.0870	   0.4891	  22.0563	  22.1913	
  -5.0000	-142.0000	  22.5000	  -0.1087	  -3.0870	   0.4891	  17.5250	  19.6550	
  -2.5000	-142.0000	  22.5000	  -0.0543	  -3.0870	   0.4891	  12.9937	  17.1187	
   0.0000	-142.0000	  22.5000	   0.0000	  -3.0870	   0.4891	   9.0716	  14.6431	
   2.5000	-142.0000	  22.5000	   0.0543	  -3.0870	   0.4891	   7.4844	  12.4000	
   5.0000	-142.0000	  22.5000	   0.1087	  -3.0870	   0.4891	   6.5062	  10.2175	
   7.5000	-142.0000	  22.5000	   0.1630	  -3.0870	   0.4891	   5.5281	   8.0350	
  10.0000	-142.0000	  22.5000	   0.2174	  -3.0870	   0.4891	   4.6444	   6.1641	
  12.5000	-142.0000	  22.5000	   0.2717	  -3.0870	   0.4891	   4.1225	   5.4875	
  15.0000	-142.0000	  22.5000	   0.3261	  -3.0870	   0.4891	   3.6950	   5.1225	
  17.5000	-142.0000	  22.5000	   0.3804	  -3.0870	   0.4891	   3.2675	   4.7575	
  20.0000	-142.0000	  22.5000	   0.4348	  -3.0870	   0.4891	   2.8400	   4.3925	
 -20.0000	-142.0000	  25.0000	  -0.4348	  -3.0870	   0.5435	  27.7300	  32.4300	
 -17.5000	-142.0000	  25.0000	  -0.3804	  -3.0870	   0.5435	  27.2930	  30.4631	
 -15.0000	-142.0000	  25.0000	  -0.3261	  -3.0870	   0.5435	  26.6617	  28.2872	
 -12.5000	-142.0000	  25.0000	  -0.2717	  -3.0870	   0.5435	  26.0204	  26.0304	
 -10.0000	-142.0000	  25.0000	  -0.2174	  -3.0870	   0.5435	  25.5500	  23.7900	
  -7.5000	-142.0000	  25.0000	  -0.1630	  -3.0870	   0.5435	  20.9318	  21.1197	
  -5.0000	-142.0000	  25.0000	  -0.1087	  -3.0870	   0.5435	  16.4631	  18.4358	
  -2.5000	-142.0000	  25.0000	  -0.0543	  -3.0870	   0.5435	  12.0272	  15.7310	
   0.0000	-142.0000	  25.0000	   0.0000	  -3.0870	   0.5435	   7.5200	  12.9900	
   2.5000	-142.0000	  25.0000	   0.0543	  -3.0870	   0.5435	   6.6633	  10.9989	
   5.0000	-142.0000	  25.0000	   0.1087	  -3.0870	   0.5435	   5.7731	   9.0014	
   7.5000	-142.0000	  25.0000	   0.1630	  -3.0870	   0.5435	   4.8403	   6.9233	
  10.0000	-142.0000	  25.0000	   0.2174	  -3.0870	   0.5435	   3.8400	   4.6600	
  12.5000	-142.0000	  25.0000	   0.2717	  -3.0870	   0.5435	   3.5869	   4.6306	
  15.0000	-142.0000	  25.0000	   0.3261	  -3.0870	   0.5435	   3.2658	   4.4278	
  17.5000	-142.0000	  25.0000	   0.3804	  -3.0870	   0.5435	   2.9032	   4.1209	
  20.0000	-142.0000	  25.0000	   0.4348	  -3.0870	   0.5435	   2.5100	   3.7400	
 -20.0000	-142.0000	  27.5000	  -0.4348	  -3.0870	   0.5978	  26.1750	  31.3375	
 -17.5000	-142.0000	  27.5000	  -0.3804	  -3.0870	   0.5978	  25.5175	  29.2513	
 -15.0000	-142.0000	  27.5000	  -0.3261	  -3.0870	   0.5978	  24.8600	  27.1650	
 -12.5000	-142.0000	  27.5000	  -0.2717	  -3.0870	   0.5978	  24.2025	  25.0787	
 -10.0000	-142.0000	  27.5000	  -0.2174	  -3.0870	   0.5978	  22.9442	  22.8649	
  -7.5000	-142.0000	  27.5000	  -0.1630	  -3.0870	   0.5978	  19.3831	  20.1619	
  -5.0000	-142.0000	  27.5000	  -0.1087	  -3.0870	   0.5978	  15.2213	  17.3313	
  -2.5000	-142.0000	  27.5000	  -0.0543	  -3.0870	   0.5978	  11.0594	  14.5006	
   0.0000	-142.0000	  27.5000	   0.0000	  -3.0870	   0.5978	   7.4717	  11.8601	
   2.5000	-142.0000	  27.5000	   0.0543	  -3.0870	   0.5978	   6.0850	   9.9481	
   5.0000	-142.0000	  27.5000	   0.1087	  -3.0870	   0.5978	   5.2725	   8.2263	
   7.5000	-142.0000	  27.5000	   0.1630	  -3.0870	   0.5978	   4.4600	   6.5044	
  10.0000	-142.0000	  27.5000	   0.2174	  -3.0870	   0.5978	   3.7367	   5.0365	
  12.5000	-142.0000	  27.5000	   0.2717	  -3.0870	   0.5978	   3.3556	   4.5425	
  15.0000	-142.0000	  27.5000	   0.3261	  -3.0870	   0.5978	   3.0637	   4.3025	
  17.5000	-142.0000	  27.5000	   0.3804	  -3.0870	   0.5978	   2.7719	   4.0625	
  20.0000	-142.0000	  27.5000	   0.4348	  -3.0870	   0.5978	   2.4800	   3.8225	
 -20.0000	-142.0000	  30.0000	  -0.4348	  -3.0870	   0.6522	  24.6200	  30.2450	
 -17.5000	-142.0000	  30.0000	  -0.3804	  -3.0870	   0.6522	  23.8500	  28.2325	
 -15.0000	-142.0000	  30.0000	  -0.3261	  -3.0870	   0.6522	  23.0800	  26.2200	
 -12.5000	-142.0000	  30.0000	  -0.2717	  -3.0870	   0.6522	  22.3100	  24.2075	
 -10.0000	-142.0000	  30.0000	  -0.2174	  -3.0870	   0.6522	  20.8631	  21.9842	
  -7.5000	-142.0000	  30.0000	  -0.1630	  -3.0870	   0.6522	  17.7237	  19.2338	
  -5.0000	-142.0000	  30.0000	  -0.1087	  -3.0870	   0.6522	  13.9075	  16.2725	
  -2.5000	-142.0000	  30.0000	  -0.0543	  -3.0870	   0.6522	  10.0912	  13.3112	
   0.0000	-142.0000	  30.0000	   0.0000	  -3.0870	   0.6522	   6.9664	  10.7056	
   2.5000	-142.0000	  30.0000	   0.0543	  -3.0870	   0.6522	   5.5700	   8.9888	
   5.0000	-142.0000	  30.0000	   0.1087	  -3.0870	   0.6522	   4.8650	   7.6275	
   7.5000	-142.0000	  30.0000	   0.1630	  -3.0870	   0.6522	   4.1600	   6.2662	
  10.0000	-142.0000	  30.0000	   0.2174	  -3.0870	   0.6522	   3.5558	   5.1519	
  12.5000	-142.0000	  30.0000	   0.2717	  -3.0870	   0.6522	   3.2037	   4.6550	
  15.0000	-142.0000	  30.0000	   0.3261	  -3.0870	   0.6522	   2.9525	   4.4050	
  17.5000	-142.0000	  30.0000	   0.3804	  -3.0870	   0.6522	   2.7013	   4.1550	
  20.0000	-142.0000	  30.0000	   0.4348	  -3.0870	   0.6522	   2.4500	   3.9050	
 -20.0000	-142.0000	  32.5000	  -0.4348	  -3.0870	   0.7065	  23.0650	  29.1525	
 -17.5000	-142.0000	  32.5000	  -0.3804	  -3.0870	   0.7065	  22.1825	  27.2137	
 -15.0000	-142.0000	  32.5000	  -0.3261	  -3.0870	   0.7065	  21.3000	  25.2750	
 -12.5000	-142.0000	  32.5000	  -0.2717	  -3.0870	   0.7065	  20.4175	  23.3362	
 -10.0000	-142.0000	  32.5000	  -0.2174	  -3.0870	   0.7065	  19.0913	  21.1998	
  -7.5000	-142.0000	  32.5000	  -0.1630	  -3.0870	   0.7065	  16.0644	  18.3056	
  -5.0000	-142.0000	  32.5000	  -0.1087	  -3.0870	   0.7065	  12.5938	  15.2138	
  -2.5000	-142.0000	  32.5000	  -0.0543	  -3.0870	   0.7065	   9.1231	  12.1219	
   0.0000	-142.0000	  32.5000	   0.0000	  -3.0870	   0.7065	   6.1450	   9.3885	
   2.5000	-142.0000	  32.5000	   0.0543	  -3.0870	   0.7065	   5.0550	   8.0294	
   5.0000	-142.0000	  32.5000	   0.1087	  -3.0870	   0.7065	   4.4575	   7.0288	
   7.5000	-142.0000	  32.5000	   0.1630	  -3.0870	   0.7065	   3.8600	   6.0281	
  10.0000	-142.0000	  32.5000	   0.2174	  -3.0870	   0.7065	   3.3288	   5.1545	
  12.5000	-142.0000	  32.5000	   0.2717	  -3.0870	   0.7065	   3.0519	   4.7675	
  15.0000	-142.0000	  32.5000	   0.3261	  -3.0870	   0.7065	   2.8412	   4.5075	
  17.5000	-142.0000	  32.5000	   0.3804	  -3.0870	   0.7065	   2.6306	   4.2475	
  20.0000	-142.0000	  32.5000	   0.4348	  -3.0870	   0.7065	   2.4200	   3.9875	
 -20.0000	-142.0000	  35.0000	  -0.4348	  -3.0870	   0.7609	  21.5100	  28.0600	
 -17.5000	-142.0000	  35.0000	  -0.3804	  -3.0870	   0.7609	  20.7988	  26.3032	
 -15.0000	-142.0000	  35.0000	  -0.3261	  -3.0870	   0.7609	  19.8903	  24.4906	
 -12.5000	-142.0000	  35.0000	  -0.2717	  -3.0870	   0.7609	  18.8125	  22.6045	
 -10.0000	-142.0000	  35.0000	  -0.2174	  -3.0870	   0.7609	  17.5300	  20.6000	
  -7.5000	-142.0000	  35.0000	  -0.1630	  -3.0870	   0.7609	  14.6614	  17.5694	
  -5.0000	-142.0000	  35.0000	  -0.1087	  -3.0870	   0.7609	  11.5697	  14.4514	
  -2.5000	-142.0000	  35.0000	  -0.0543	  -3.0870	   0.7609	   8.3456	  11.1979	
   0.0000	-142.0000	  35.0000	   0.0000	  -3.0870	   0.7609	   5.0300	   7.7100	
   2.5000	-142.0000	  35.0000	   0.0543	  -3.0870	   0.7609	   4.6712	   7.2948	
   5.0000	-142.0000	  35.0000	   0.1087	  -3.0870	   0.7609	   4.1858	   6.6211	
   7.5000	-142.0000	  35.0000	   0.1630	  -3.0870	   0.7609	   3.6383	   5.8601	
  10.0000	-142.0000	  35.0000	   0.2174	  -3.0870	   0.7609	   3.0700	   5.1500	
  12.5000	-142.0000	  35.0000	   0.2717	  -3.0870	   0.7609	   2.9396	   4.8708	
  15.0000	-142.0000	  35.0000	   0.3261	  -3.0870	   0.7609	   2.7656	   4.5956	
  17.5000	-142.0000	  35.0000	   0.3804	  -3.0870	   0.7609	   2.5752	   4.3269	
  20.0000	-142.0000	  35.0000	   0.4348	  -3.0870	   0.7609	   2.3900	   4.0700	
 -20.0000	-142.0000	  37.5000	  -0.4348	  -3.0870	   0.8152	  21.6000	  27.5075	
 -17.5000	-142.0000	  37.5000	  -0.3804	  -3.0870	   0.8152	  20.5031	  25.8075	
 -15.0000	-142.0000	  37.5000	  -0.3261	  -3.0870	   0.8152	  19.4062	  24.1075	
 -12.5000	-142.0000	  37.5000	  -0.2717	  -3.0870	   0.8152	  18.3094	  22.4075	
 -10.0000	-142.0000	  37.5000	  -0.2174	  -3.0870	   0.8152	  16.8912	  20.4609	
  -7.5000	-142.0000	  37.5000	  -0.1630	  -3.0870	   0.8152	  14.2413	  17.5688	
  -5.0000	-142.0000	  37.5000	  -0.1087	  -3.0870	   0.8152	  11.2700	  14.4300	
  -2.5000	-142.0000	  37.5000	  -0.0543	  -3.0870	   0.8152	   8.2988	  11.2913	
   0.0000	-142.0000	  37.5000	   0.0000	  -3.0870	   0.8152	   5.7448	   8.5653	
   2.5000	-142.0000	  37.5000	   0.0543	  -3.0870	   0.8152	   4.7906	   7.4219	
   5.0000	-142.0000	  37.5000	   0.1087	  -3.0870	   0.8152	   4.2537	   6.6913	
   7.5000	-142.0000	  37.5000	   0.1630	  -3.0870	   0.8152	   3.7169	   5.9606	
  10.0000	-142.0000	  37.5000	   0.2174	  -3.0870	   0.8152	   3.2376	   5.3053	
  12.5000	-142.0000	  37.5000	   0.2717	  -3.0870	   0.8152	   2.9794	   4.9387	
  15.0000	-142.0000	  37.5000	   0.3261	  -3.0870	   0.8152	   2.7788	   4.6475	
  17.5000	-142.0000	  37.5000	   0.3804	  -3.0870	   0.8152	   2.5781	   4.3563	
  20.0000	-142.0000	  37.5000	   0.4348	  -3.0870	   0.8152	   2.3775	   4.0650	
 -20.0000	-142.0000	  40.0000	  -0.4348	  -3.0870	   0.8696	  21.6900	  26.9550	
 -17.5000	-142.0000	  40.0000	  -0.3804	  -3.0870	   0.8696	  20.4913	  25.4200	
 -15.0000	-142.0000	  40.0000	  -0.3261	  -3.0870	   0.8696	  19.2925	  23.8850	
 -12.5000	-142.0000	  40.0000	  -0.2717	  -3.0870	   0.8696	  18.0938	  22.3500	
 -10.0000	-142.0000	  40.0000	  -0.2174	  -3.0870	   0.8696	  16.5353	  20.4772	
  -7.5000	-142.0000	  40.0000	  -0.1630	  -3.0870	   0.8696	  14.0775	  17.7600	
  -5.0000	-142.0000	  40.0000	  -0.1087	  -3.0870	   0.8696	  11.2600	  14.7050	
  -2.5000	-142.0000	  40.0000	  -0.0543	  -3.0870	   0.8696	   8.4425	  11.6500	
   0.0000	-142.0000	  40.0000	   0.0000	  -3.0870	   0.8696	   6.1214	   9.0914	
   2.5000	-142.0000	  40.0000	   0.0543	  -3.0870	   0.8696	   5.0413	   7.7738	
   5.0000	-142.0000	  40.0000	   0.1087	  -3.0870	   0.8696	   4.4575	   6.9525	
   7.5000	-142.0000	  40.0000	   0.1630	  -3.0870	   0.8696	   3.8738	   6.1312	
  10.0000	-142.0000	  40.0000	   0.2174	  -3.0870	   0.8696	   3.3683	   5.4231	
  12.5000	-142.0000	  40.0000	   0.2717	  -3.0870	   0.8696	   3.0587	   4.9975	
  15.0000	-142.0000	  40.0000	   0.3261	  -3.0870	   0.8696	   2.8275	   4.6850	
  17.5000	-142.0000	  40.0000	   0.3804	  -3.0870	   0.8696	   2.5963	   4.3725	
  20.0000	-142.0000	  40.0000	   0.4348	  -3.0870	   0.8696	   2.3650	   4.0600	
 -20.0000	-142.0000	  42.5000	  -0.4348	  -3.0870	   0.9239	  21.7800	  26.4025	
 -17.5000	-142.0000	  42.5000	  -0.3804	  -3.0870	   0.9239	  20.4794	  25.0325	
 -15.0000	-142.0000	  42.5000	  -0.3261	  -3.0870	   0.9239	  19.1788	  23.6625	
 -12.5000	-142.0000	  42.5000	  -0.2717	  -3.0870	   0.9239	  17.8781	  22.2925	
 -10.0000	-142.0000	  42.5000	  -0.2174	  -3.0870	   0.9239	  16.3438	  20.6480	
  -7.5000	-142.0000	  42.5000	  -0.1630	  -3.0870	   0.9239	  13.9138	  17.9513	
  -5.0000	-142.0000	  42.5000	  -0.1087	  -3.0870	   0.9239	  11.2500	  14.9800	
  -2.5000	-142.0000	  42.5000	  -0.0543	  -3.0870	   0.9239	   8.5862	  12.0088	
   0.0000	-142.0000	  42.5000	   0.0000	  -3.0870	   0.9239	   6.2710	   9.3905	
   2.5000	-142.0000	  42.5000	   0.0543	  -3.0870	   0.9239	   5.2919	   8.1256	
   5.0000	-142.0000	  42.5000	   0.1087	  -3.0870	   0.9239	   4.6612	   7.2137	
   7.5000	-142.0000	  42.5000	   0.1630	  -3.0870	   0.9239	   4.0306	   6.3019	
  10.0000	-142.0000	  42.5000	   0.2174	  -3.0870	   0.9239	   3.4632	   5.4891	
  12.5000	-142.0000	  42.5000	   0.2717	  -3.0870	   0.9239	   3.1381	   5.0563	
  15.0000	-142.0000	  42.5000	   0.3261	  -3.0870	   0.9239	   2.8762	   4.7225	
  17.5000	-142.0000	  42.5000	   0.3804	  -3.0870	   0.9239	   2.6144	   4.3887	
  20.0000	-142.0000	  42.5000	   0.4348	  -3.0870	   0.9239	   2.3525	   4.0550	
 -20.0000	-142.0000	  45.0000	  -0.4348	  -3.0870	   0.9783	  21.8700	  25.8500	
 -17.5000	-142.0000	  45.0000	  -0.3804	  -3.0870	   0.9783	  20.2189	  24.3924	
 -15.0000	-142.0000	  45.0000	  -0.3261	  -3.0870	   0.9783	  18.7817	  23.0861	
 -12.5000	-142.0000	  45.0000	  -0.2717	  -3.0870	   0.9783	  17.4739	  21.9416	
 -10.0000	-142.0000	  45.0000	  -0.2174	  -3.0870	   0.9783	  16.2600	  21.0300	
  -7.5000	-142.0000	  45.0000	  -0.1630	  -3.0870	   0.9783	  13.6423	  17.9075	
  -5.0000	-142.0000	  45.0000	  -0.1087	  -3.0870	   0.9783	  11.1664	  15.0525	
  -2.5000	-142.0000	  45.0000	  -0.0543	  -3.0870	   0.9783	   8.7241	  12.2900	
   0.0000	-142.0000	  45.0000	   0.0000	  -3.0870	   0.9783	   6.2200	   9.4800	
   2.5000	-142.0000	  45.0000	   0.0543	  -3.0870	   0.9783	   5.5840	   8.4824	
   5.0000	-142.0000	  45.0000	   0.1087	  -3.0870	   0.9783	   4.9142	   7.4861	
   7.5000	-142.0000	  45.0000	   0.1630	  -3.0870	   0.9783	   4.2219	   6.4847	
  10.0000	-142.0000	  45.0000	   0.2174	  -3.0870	   0.9783	   3.5100	   5.4700	
  12.5000	-142.0000	  45.0000	   0.2717	  -3.0870	   0.9783	   3.2497	   5.1282	
  15.0000	-142.0000	  45.0000	   0.3261	  -3.0870	   0.9783	   2.9686	   4.7736	
  17.5000	-142.0000	  45.0000	   0.3804	  -3.0870	   0.9783	   2.6675	   4.4128	
  20.0000	-142.0000	  45.0000	   0.4348	  -3.0870	   0.9783	   2.3400	   4.0500	
 -20.0000	-142.0000	  47.5000	  -0.4348	  -3.0870	   1.0326	  20.3350	  23.9425	
 -17.5000	-142.0000	  47.5000	  -0.3804	  -3.0870	   1.0326	  19.0056	  22.7837	
 -15.0000	-142.0000	  47.5000	  -0.3261	  -3.0870	   1.0326	  17.6763	  21.6250	
 -12.5000	-142.0000	  47.5000	  -0.2717	  -3.0870	   1.0326	  16.3469	  20.4663	
 -10.0000	-142.0000	  47.5000	  -0.2174	  -3.0870	   1.0326	  14.8924	  19.1043	
  -7.5000	-142.0000	  47.5000	  -0.1630	  -3.0870	   1.0326	  12.9581	  16.9631	
  -5.0000	-142.0000	  47.5000	  -0.1087	  -3.0870	   1.0326	  10.8988	  14.6188	
  -2.5000	-142.0000	  47.5000	  -0.0543	  -3.0870	   1.0326	   8.8394	  12.2744	
   0.0000	-142.0000	  47.5000	   0.0000	  -3.0870	   1.0326	   7.0053	  10.1481	
   2.5000	-142.0000	  47.5000	   0.0543	  -3.0870	   1.0326	   6.0350	   8.8581	
   5.0000	-142.0000	  47.5000	   0.1087	  -3.0870	   1.0326	   5.2900	   7.7862	
   7.5000	-142.0000	  47.5000	   0.1630	  -3.0870	   1.0326	   4.5450	   6.7144	
  10.0000	-142.0000	  47.5000	   0.2174	  -3.0870	   1.0326	   3.8737	   5.7591	
  12.5000	-142.0000	  47.5000	   0.2717	  -3.0870	   1.0326	   3.4850	   5.2506	
  15.0000	-142.0000	  47.5000	   0.3261	  -3.0870	   1.0326	   3.1700	   4.8587	
  17.5000	-142.0000	  47.5000	   0.3804	  -3.0870	   1.0326	   2.8550	   4.4669	
  20.0000	-142.0000	  47.5000	   0.4348	  -3.0870	   1.0326	   2.5400	   4.0750	
 -20.0000	-142.0000	  50.0000	  -0.4348	  -3.0870	   1.0870	  18.8000	  22.0350	
 -17.5000	-142.0000	  50.0000	  -0.3804	  -3.0870	   1.0870	  17.5437	  20.9225	
 -15.0000	-142.0000	  50.0000	  -0.3261	  -3.0870	   1.0870	  16.2875	  19.8100	
 -12.5000	-142.0000	  50.0000	  -0.2717	  -3.0870	   1.0870	  15.0312	  18.6975	
 -10.0000	-142.0000	  50.0000	  -0.2174	  -3.0870	   1.0870	  13.6967	  17.4319	
  -7.5000	-142.0000	  50.0000	  -0.1630	  -3.0870	   1.0870	  12.1662	  15.7837	
  -5.0000	-142.0000	  50.0000	  -0.1087	  -3.0870	   1.0870	  10.5575	  13.9825	
  -2.5000	-142.0000	  50.0000	  -0.0543	  -3.0870	   1.0870	   8.9488	  12.1812	
   0.0000	-142.0000	  50.0000	   0.0000	  -3.0870	   1.0870	   7.5169	  10.5267	
   2.5000	-142.0000	  50.0000	   0.0543	  -3.0870	   1.0870	   6.5275	   9.2387	
   5.0000	-142.0000	  50.0000	   0.1087	  -3.0870	   1.0870	   5.7150	   8.0975	
   7.5000	-142.0000	  50.0000	   0.1630	  -3.0870	   1.0870	   4.9025	   6.9563	
  10.0000	-142.0000	  50.0000	   0.2174	  -3.0870	   1.0870	   4.1956	   5.9733	
  12.5000	-142.0000	  50.0000	   0.2717	  -3.0870	   1.0870	   3.7525	   5.3862	
  15.0000	-142.0000	  50.0000	   0.3261	  -3.0870	   1.0870	   3.4150	   4.9575	
  17.5000	-142.0000	  50.0000	   0.3804	  -3.0870	   1.0870	   3.0775	   4.5288	
  20.0000	-142.0000	  50.0000	   0.4348	  -3.0870	   1.0870	   2.7400	   4.1000	
 -20.0000	-142.0000	  52.5000	  -0.4348	  -3.0870	   1.1413	  17.2650	  20.1275	
 -17.5000	-142.0000	  52.5000	  -0.3804	  -3.0870	   1.1413	  16.0819	  19.0613	
 -15.0000	-142.0000	  52.5000	  -0.3261	  -3.0870	   1.1413	  14.8987	  17.9950	
 -12.5000	-142.0000	  52.5000	  -0.2717	  -3.0870	   1.1413	  13.7156	  16.9288	
 -10.0000	-142.0000	  52.5000	  -0.2174	  -3.0870	   1.1413	  12.5368	  15.8296	
  -7.5000	-142.0000	  52.5000	  -0.1630	  -3.0870	   1.1413	  11.3744	  14.6044	
  -5.0000	-142.0000	  52.5000	  -0.1087	  -3.0870	   1.1413	  10.2163	  13.3462	
  -2.5000	-142.0000	  52.5000	  -0.0543	  -3.0870	   1.1413	   9.0581	  12.0881	
   0.0000	-142.0000	  52.5000	   0.0000	  -3.0870	   1.1413	   7.9477	  10.8381	
   2.5000	-142.0000	  52.5000	   0.0543	  -3.0870	   1.1413	   7.0200	   9.6194	
   5.0000	-142.0000	  52.5000	   0.1087	  -3.0870	   1.1413	   6.1400	   8.4088	
   7.5000	-142.0000	  52.5000	   0.1630	  -3.0870	   1.1413	   5.2600	   7.1981	
  10.0000	-142.0000	  52.5000	   0.2174	  -3.0870	   1.1413	   4.4691	   6.1152	
  12.5000	-142.0000	  52.5000	   0.2717	  -3.0870	   1.1413	   4.0200	   5.5219	
  15.0000	-142.0000	  52.5000	   0.3261	  -3.0870	   1.1413	   3.6600	   5.0563	
  17.5000	-142.0000	  52.5000	   0.3804	  -3.0870	   1.1413	   3.3000	   4.5906	
  20.0000	-142.0000	  52.5000	   0.4348	  -3.0870	   1.1413	   2.9400	   4.1250	
 -20.0000	-142.0000	  55.0000	  -0.4348	  -3.0870	   1.1957	  15.7300	  18.2200	
 -17.5000	-142.0000	  55.0000	  -0.3804	  -3.0870	   1.1957	  14.4196	  17.1025	
 -15.0000	-142.0000	  55.0000	  -0.3261	  -3.0870	   1.1957	  13.3161	  16.1222	
 -12.5000	-142.0000	  55.0000	  -0.2717	  -3.0870	   1.1957	  12.3012	  15.1684	
 -10.0000	-142.0000	  55.0000	  -0.2174	  -3.0870	   1.1957	  11.2900	  14.1400	
  -7.5000	-142.0000	  55.0000	  -0.1630	  -3.0870	   1.1957	  10.4916	  13.4176	
  -5.0000	-142.0000	  55.0000	  -0.1087	  -3.0870	   1.1957	   9.7017	  12.6114	
  -2.5000	-142.0000	  55.0000	  -0.0543	  -3.0870	   1.1957	   8.9909	  11.8502	
   0.0000	-142.0000	  55.0000	   0.0000	  -3.0870	   1.1957	   8.4600	  11.2800	
   2.5000	-142.0000	  55.0000	   0.0543	  -3.0870	   1.1957	   7.3304	   9.8337	
   5.0000	-142.0000	  55.0000	   0.1087	  -3.0870	   1.1957	   6.3772	   8.5656	
   7.5000	-142.0000	  55.0000	   0.1630	  -3.0870	   1.1957	   5.5099	   7.3680	
  10.0000	-142.0000	  55.0000	   0.2174	  -3.0870	   1.1957	   4.6700	   6.1600	
  12.5000	-142.0000	  55.0000	   0.2717	  -3.0870	   1.1957	   4.2359	   5.6526	
  15.0000	-142.0000	  55.0000	   0.3261	  -3.0870	   1.1957	   3.8622	   5.1744	
  17.5000	-142.0000	  55.0000	   0.3804	  -3.0870	   1.1957	   3.5081	   4.6874	
  20.0000	-142.0000	  55.0000	   0.4348	  -3.0870	   1.1957	   3.1400	   4.1500	
 -20.0000	-142.0000	  57.5000	  -0.4348	  -3.0870	   1.2500	  12.7300	  15.4350	
 -17.5000	-142.0000	  57.5000	  -0.3804	  -3.0870	   1.2500	  11.9894	  14.7700	
 -15.0000	-142.0000	  57.5000	  -0.3261	  -3.0870	   1.2500	  11.2488	  14.1050	
 -12.5000	-142.0000	  57.5000	  -0.2717	  -3.0870	   1.2500	  10.5081	  13.4400	
 -10.0000	-142.0000	  57.5000	  -0.2174	  -3.0870	   1.2500	   9.8076	  12.7909	
  -7.5000	-142.0000	  57.5000	  -0.1630	  -3.0870	   1.2500	   9.2606	  12.2025	
  -5.0000	-142.0000	  57.5000	  -0.1087	  -3.0870	   1.2500	   8.7538	  11.6300	