Variables = "x [mm]"	"y [mm]"	"z [mm]"	"x/B"	"y/B"	"z/B"	"C*"	"C*std"	
Zone T = "Trees_West_y=-36mm_Tec" I=17 J=25 F=POINT
 -20.0000	 -31.0000	   5.0000	  -0.4348	  -0.6739	   0.1087	 140.9500	  53.9300	
 -17.5000	 -31.0000	   5.0000	  -0.3804	  -0.6739	   0.1087	 159.2250	  74.0400	
 -15.0000	 -31.0000	   5.0000	  -0.3261	  -0.6739	   0.1087	 177.5000	  94.1500	
 -12.5000	 -31.0000	   5.0000	  -0.2717	  -0.6739	   0.1087	 195.7750	 114.2600	
 -10.0000	 -31.0000	   5.0000	  -0.2174	  -0.6739	   0.1087	 214.0500	 134.3700	
  -7.5000	 -31.0000	   5.0000	  -0.1630	  -0.6739	   0.1087	 228.9350	 161.0250	
  -5.0000	 -31.0000	   5.0000	  -0.1087	  -0.6739	   0.1087	 243.8200	 187.6800	
  -2.5000	 -31.0000	   5.0000	  -0.0543	  -0.6739	   0.1087	 258.7050	 214.3350	
   0.0000	 -31.0000	   5.0000	   0.0000	  -0.6739	   0.1087	 273.5900	 240.9900	
   2.5000	 -31.0000	   5.0000	   0.0543	  -0.6739	   0.1087	 224.6925	 206.3150	
   5.0000	 -31.0000	   5.0000	   0.1087	  -0.6739	   0.1087	 175.7950	 171.6400	
   7.5000	 -31.0000	   5.0000	   0.1630	  -0.6739	   0.1087	 126.8975	 136.9650	
  10.0000	 -31.0000	   5.0000	   0.2174	  -0.6739	   0.1087	  78.0000	 102.2900	
  12.5000	 -31.0000	   5.0000	   0.2717	  -0.6739	   0.1087	  66.3200	  88.9350	
  15.0000	 -31.0000	   5.0000	   0.3261	  -0.6739	   0.1087	  54.6400	  75.5800	
  17.5000	 -31.0000	   5.0000	   0.3804	  -0.6739	   0.1087	  42.9600	  62.2250	
  20.0000	 -31.0000	   5.0000	   0.4348	  -0.6739	   0.1087	  31.2800	  48.8700	
 -20.0000	 -31.0000	   7.5000	  -0.4348	  -0.6739	   0.1630	 141.3425	  54.5075	
 -17.5000	 -31.0000	   7.5000	  -0.3804	  -0.6739	   0.1630	 152.3625	  69.8063	
 -15.0000	 -31.0000	   7.5000	  -0.3261	  -0.6739	   0.1630	 163.3825	  85.1050	
 -12.5000	 -31.0000	   7.5000	  -0.2717	  -0.6739	   0.1630	 174.4025	 100.4037	
 -10.0000	 -31.0000	   7.5000	  -0.2174	  -0.6739	   0.1630	 184.9651	 116.5331	
  -7.5000	 -31.0000	   7.5000	  -0.1630	  -0.6739	   0.1630	 193.7744	 135.8462	
  -5.0000	 -31.0000	   7.5000	  -0.1087	  -0.6739	   0.1630	 202.1262	 155.9900	
  -2.5000	 -31.0000	   7.5000	  -0.0543	  -0.6739	   0.1630	 210.4781	 176.1337	
   0.0000	 -31.0000	   7.5000	   0.0000	  -0.6739	   0.1630	 210.8127	 188.0535	
   2.5000	 -31.0000	   7.5000	   0.0543	  -0.6739	   0.1630	 180.4144	 168.4481	
   5.0000	 -31.0000	   7.5000	   0.1087	  -0.6739	   0.1630	 141.9988	 140.6188	
   7.5000	 -31.0000	   7.5000	   0.1630	  -0.6739	   0.1630	 103.5831	 112.7894	
  10.0000	 -31.0000	   7.5000	   0.2174	  -0.6739	   0.1630	  70.1463	  87.9077	
  12.5000	 -31.0000	   7.5000	   0.2717	  -0.6739	   0.1630	  55.7950	  74.3256	
  15.0000	 -31.0000	   7.5000	   0.3261	  -0.6739	   0.1630	  46.4225	  63.6913	
  17.5000	 -31.0000	   7.5000	   0.3804	  -0.6739	   0.1630	  37.0500	  53.0569	
  20.0000	 -31.0000	   7.5000	   0.4348	  -0.6739	   0.1630	  27.6775	  42.4225	
 -20.0000	 -31.0000	  10.0000	  -0.4348	  -0.6739	   0.2174	 141.7350	  55.0850	
 -17.5000	 -31.0000	  10.0000	  -0.3804	  -0.6739	   0.2174	 145.5000	  65.5725	
 -15.0000	 -31.0000	  10.0000	  -0.3261	  -0.6739	   0.2174	 149.2650	  76.0600	
 -12.5000	 -31.0000	  10.0000	  -0.2717	  -0.6739	   0.2174	 153.0300	  86.5475	
 -10.0000	 -31.0000	  10.0000	  -0.2174	  -0.6739	   0.2174	 156.3625	  97.7339	
  -7.5000	 -31.0000	  10.0000	  -0.1630	  -0.6739	   0.2174	 158.6137	 110.6675	
  -5.0000	 -31.0000	  10.0000	  -0.1087	  -0.6739	   0.2174	 160.4325	 124.3000	
  -2.5000	 -31.0000	  10.0000	  -0.0543	  -0.6739	   0.2174	 162.2512	 137.9325	
   0.0000	 -31.0000	  10.0000	   0.0000	  -0.6739	   0.2174	 157.4583	 143.8725	
   2.5000	 -31.0000	  10.0000	   0.0543	  -0.6739	   0.2174	 136.1362	 130.5813	
   5.0000	 -31.0000	  10.0000	   0.1087	  -0.6739	   0.2174	 108.2025	 109.5975	
   7.5000	 -31.0000	  10.0000	   0.1630	  -0.6739	   0.2174	  80.2687	  88.6137	
  10.0000	 -31.0000	  10.0000	   0.2174	  -0.6739	   0.2174	  56.9725	  70.5344	
  12.5000	 -31.0000	  10.0000	   0.2717	  -0.6739	   0.2174	  45.2700	  59.7162	
  15.0000	 -31.0000	  10.0000	   0.3261	  -0.6739	   0.2174	  38.2050	  51.8025	
  17.5000	 -31.0000	  10.0000	   0.3804	  -0.6739	   0.2174	  31.1400	  43.8888	
  20.0000	 -31.0000	  10.0000	   0.4348	  -0.6739	   0.2174	  24.0750	  35.9750	
 -20.0000	 -31.0000	  12.5000	  -0.4348	  -0.6739	   0.2717	 142.1275	  55.6625	
 -17.5000	 -31.0000	  12.5000	  -0.3804	  -0.6739	   0.2717	 138.6375	  61.3388	
 -15.0000	 -31.0000	  12.5000	  -0.3261	  -0.6739	   0.2717	 135.1475	  67.0150	
 -12.5000	 -31.0000	  12.5000	  -0.2717	  -0.6739	   0.2717	 131.6575	  72.6913	
 -10.0000	 -31.0000	  12.5000	  -0.2174	  -0.6739	   0.2717	 127.9576	  78.6152	
  -7.5000	 -31.0000	  12.5000	  -0.1630	  -0.6739	   0.2717	 123.4531	  85.4888	
  -5.0000	 -31.0000	  12.5000	  -0.1087	  -0.6739	   0.2717	 118.7387	  92.6100	
  -2.5000	 -31.0000	  12.5000	  -0.0543	  -0.6739	   0.2717	 114.0244	  99.7313	
   0.0000	 -31.0000	  12.5000	   0.0000	  -0.6739	   0.2717	 107.1264	 103.2080	
   2.5000	 -31.0000	  12.5000	   0.0543	  -0.6739	   0.2717	  91.8581	  92.7144	
   5.0000	 -31.0000	  12.5000	   0.1087	  -0.6739	   0.2717	  74.4062	  78.5763	
   7.5000	 -31.0000	  12.5000	   0.1630	  -0.6739	   0.2717	  56.9544	  64.4381	
  10.0000	 -31.0000	  12.5000	   0.2174	  -0.6739	   0.2717	  41.6787	  51.8334	
  12.5000	 -31.0000	  12.5000	   0.2717	  -0.6739	   0.2717	  34.7450	  45.1069	
  15.0000	 -31.0000	  12.5000	   0.3261	  -0.6739	   0.2717	  29.9875	  39.9138	
  17.5000	 -31.0000	  12.5000	   0.3804	  -0.6739	   0.2717	  25.2300	  34.7206	
  20.0000	 -31.0000	  12.5000	   0.4348	  -0.6739	   0.2717	  20.4725	  29.5275	
 -20.0000	 -31.0000	  15.0000	  -0.4348	  -0.6739	   0.3261	 142.5200	  56.2400	
 -17.5000	 -31.0000	  15.0000	  -0.3804	  -0.6739	   0.3261	 132.2327	  57.3789	
 -15.0000	 -31.0000	  15.0000	  -0.3261	  -0.6739	   0.3261	 123.2489	  59.3356	
 -12.5000	 -31.0000	  15.0000	  -0.2717	  -0.6739	   0.3261	 113.2507	  60.6680	
 -10.0000	 -31.0000	  15.0000	  -0.2174	  -0.6739	   0.3261	  99.5400	  59.7000	
  -7.5000	 -31.0000	  15.0000	  -0.1630	  -0.6739	   0.3261	  93.6092	  63.8565	
  -5.0000	 -31.0000	  15.0000	  -0.1087	  -0.6739	   0.3261	  85.3592	  66.7281	
  -2.5000	 -31.0000	  15.0000	  -0.0543	  -0.6739	   0.3261	  73.3083	  66.9445	
   0.0000	 -31.0000	  15.0000	   0.0000	  -0.6739	   0.3261	  54.5500	  62.1400	
   2.5000	 -31.0000	  15.0000	   0.0543	  -0.6739	   0.3261	  54.5385	  60.1795	
   5.0000	 -31.0000	  15.0000	   0.1087	  -0.6739	   0.3261	  47.4922	  53.1492	
   7.5000	 -31.0000	  15.0000	   0.1630	  -0.6739	   0.3261	  37.2998	  43.5615	
  10.0000	 -31.0000	  15.0000	   0.2174	  -0.6739	   0.3261	  26.6700	  32.9700	
  12.5000	 -31.0000	  15.0000	   0.2717	  -0.6739	   0.3261	  25.8691	  32.3799	
  15.0000	 -31.0000	  15.0000	   0.3261	  -0.6739	   0.3261	  23.4394	  29.9464	
  17.5000	 -31.0000	  15.0000	   0.3804	  -0.6739	   0.3261	  20.2466	  26.6345	
  20.0000	 -31.0000	  15.0000	   0.4348	  -0.6739	   0.3261	  16.8700	  23.0800	
 -20.0000	 -31.0000	  17.5000	  -0.4348	  -0.6739	   0.3804	 138.2675	  53.8675	
 -17.5000	 -31.0000	  17.5000	  -0.3804	  -0.6739	   0.3804	 127.5825	  54.4688	
 -15.0000	 -31.0000	  17.5000	  -0.3261	  -0.6739	   0.3804	 116.8975	  55.0700	
 -12.5000	 -31.0000	  17.5000	  -0.2717	  -0.6739	   0.3804	 106.2125	  55.6713	
 -10.0000	 -31.0000	  17.5000	  -0.2174	  -0.6739	   0.3804	  95.4081	  56.0917	
  -7.5000	 -31.0000	  17.5000	  -0.1630	  -0.6739	   0.3804	  84.1462	  55.8194	
  -5.0000	 -31.0000	  17.5000	  -0.1087	  -0.6739	   0.3804	  72.7650	  55.3663	
  -2.5000	 -31.0000	  17.5000	  -0.0543	  -0.6739	   0.3804	  61.3837	  54.9131	
   0.0000	 -31.0000	  17.5000	   0.0000	  -0.6739	   0.3804	  50.9062	  53.4446	
   2.5000	 -31.0000	  17.5000	   0.0543	  -0.6739	   0.3804	  43.8931	  48.0837	
   5.0000	 -31.0000	  17.5000	   0.1087	  -0.6739	   0.3804	  37.7837	  41.7075	
   7.5000	 -31.0000	  17.5000	   0.1630	  -0.6739	   0.3804	  31.6744	  35.3313	
  10.0000	 -31.0000	  17.5000	   0.2174	  -0.6739	   0.3804	  26.2266	  29.6904	
  12.5000	 -31.0000	  17.5000	   0.2717	  -0.6739	   0.3804	  23.3150	  26.8688	
  15.0000	 -31.0000	  17.5000	   0.3261	  -0.6739	   0.3804	  21.0650	  24.7825	
  17.5000	 -31.0000	  17.5000	   0.3804	  -0.6739	   0.3804	  18.8150	  22.6962	
  20.0000	 -31.0000	  17.5000	   0.4348	  -0.6739	   0.3804	  16.5650	  20.6100	
 -20.0000	 -31.0000	  20.0000	  -0.4348	  -0.6739	   0.4348	 134.0150	  51.4950	
 -17.5000	 -31.0000	  20.0000	  -0.3804	  -0.6739	   0.4348	 123.3900	  51.8325	
 -15.0000	 -31.0000	  20.0000	  -0.3261	  -0.6739	   0.4348	 112.7650	  52.1700	
 -12.5000	 -31.0000	  20.0000	  -0.2717	  -0.6739	   0.4348	 102.1400	  52.5075	
 -10.0000	 -31.0000	  20.0000	  -0.2174	  -0.6739	   0.4348	  91.3172	  52.4331	
  -7.5000	 -31.0000	  20.0000	  -0.1630	  -0.6739	   0.4348	  80.0000	  51.3287	
  -5.0000	 -31.0000	  20.0000	  -0.1087	  -0.6739	   0.4348	  68.4850	  49.8125	
  -2.5000	 -31.0000	  20.0000	  -0.0543	  -0.6739	   0.4348	  56.9700	  48.2963	
   0.0000	 -31.0000	  20.0000	   0.0000	  -0.6739	   0.4348	  46.8475	  45.9036	
   2.5000	 -31.0000	  20.0000	   0.0543	  -0.6739	   0.4348	  40.2063	  41.3200	
   5.0000	 -31.0000	  20.0000	   0.1087	  -0.6739	   0.4348	  34.9575	  35.8600	
   7.5000	 -31.0000	  20.0000	   0.1630	  -0.6739	   0.4348	  29.7087	  30.4000	
  10.0000	 -31.0000	  20.0000	   0.2174	  -0.6739	   0.4348	  25.1708	  25.7756	
  12.5000	 -31.0000	  20.0000	   0.2717	  -0.6739	   0.4348	  22.4100	  23.2400	
  15.0000	 -31.0000	  20.0000	   0.3261	  -0.6739	   0.4348	  20.3600	  21.5400	
  17.5000	 -31.0000	  20.0000	   0.3804	  -0.6739	   0.4348	  18.3100	  19.8400	
  20.0000	 -31.0000	  20.0000	   0.4348	  -0.6739	   0.4348	  16.2600	  18.1400	
 -20.0000	 -31.0000	  22.5000	  -0.4348	  -0.6739	   0.4891	 129.7625	  49.1225	
 -17.5000	 -31.0000	  22.5000	  -0.3804	  -0.6739	   0.4891	 119.1975	  49.1962	
 -15.0000	 -31.0000	  22.5000	  -0.3261	  -0.6739	   0.4891	 108.6325	  49.2700	
 -12.5000	 -31.0000	  22.5000	  -0.2717	  -0.6739	   0.4891	  98.0675	  49.3438	
 -10.0000	 -31.0000	  22.5000	  -0.2174	  -0.6739	   0.4891	  87.3167	  48.9627	
  -7.5000	 -31.0000	  22.5000	  -0.1630	  -0.6739	   0.4891	  75.8538	  46.8381	
  -5.0000	 -31.0000	  22.5000	  -0.1087	  -0.6739	   0.4891	  64.2050	  44.2588	
  -2.5000	 -31.0000	  22.5000	  -0.0543	  -0.6739	   0.4891	  52.5562	  41.6794	
   0.0000	 -31.0000	  22.5000	   0.0000	  -0.6739	   0.4891	  42.1522	  38.7633	
   2.5000	 -31.0000	  22.5000	   0.0543	  -0.6739	   0.4891	  36.5194	  34.5563	
   5.0000	 -31.0000	  22.5000	   0.1087	  -0.6739	   0.4891	  32.1313	  30.0125	
   7.5000	 -31.0000	  22.5000	   0.1630	  -0.6739	   0.4891	  27.7431	  25.4688	
  10.0000	 -31.0000	  22.5000	   0.2174	  -0.6739	   0.4891	  23.7901	  21.4787	
  12.5000	 -31.0000	  22.5000	   0.2717	  -0.6739	   0.4891	  21.5050	  19.6112	
  15.0000	 -31.0000	  22.5000	   0.3261	  -0.6739	   0.4891	  19.6550	  18.2975	
  17.5000	 -31.0000	  22.5000	   0.3804	  -0.6739	   0.4891	  17.8050	  16.9838	
  20.0000	 -31.0000	  22.5000	   0.4348	  -0.6739	   0.4891	  15.9550	  15.6700	
 -20.0000	 -31.0000	  25.0000	  -0.4348	  -0.6739	   0.5435	 125.5100	  46.7500	
 -17.5000	 -31.0000	  25.0000	  -0.3804	  -0.6739	   0.5435	 115.3591	  46.7051	
 -15.0000	 -31.0000	  25.0000	  -0.3261	  -0.6739	   0.5435	 104.8192	  46.6206	
 -12.5000	 -31.0000	  25.0000	  -0.2717	  -0.6739	   0.5435	  94.1333	  46.4215	
 -10.0000	 -31.0000	  25.0000	  -0.2174	  -0.6739	   0.5435	  83.4900	  45.9900	
  -7.5000	 -31.0000	  25.0000	  -0.1630	  -0.6739	   0.5435	  71.9361	  42.8389	
  -5.0000	 -31.0000	  25.0000	  -0.1087	  -0.6739	   0.5435	  60.4783	  39.6033	
  -2.5000	 -31.0000	  25.0000	  -0.0543	  -0.6739	   0.5435	  48.7676	  35.9571	
   0.0000	 -31.0000	  25.0000	   0.0000	  -0.6739	   0.5435	  36.3600	  31.4200	
   2.5000	 -31.0000	  25.0000	   0.0543	  -0.6739	   0.5435	  33.5225	  28.8021	
   5.0000	 -31.0000	  25.0000	   0.1087	  -0.6739	   0.5435	  30.0267	  25.3614	
   7.5000	 -31.0000	  25.0000	   0.1630	  -0.6739	   0.5435	  26.2009	  21.3738	
  10.0000	 -31.0000	  25.0000	   0.2174	  -0.6739	   0.5435	  22.2500	  16.9100	
  12.5000	 -31.0000	  25.0000	   0.2717	  -0.6739	   0.5435	  20.8435	  16.6505	
  15.0000	 -31.0000	  25.0000	   0.3261	  -0.6739	   0.5435	  19.2053	  15.8153	
  17.5000	 -31.0000	  25.0000	   0.3804	  -0.6739	   0.5435	  17.4503	  14.6325	
  20.0000	 -31.0000	  25.0000	   0.4348	  -0.6739	   0.5435	  15.6500	  13.2000	
 -20.0000	 -31.0000	  27.5000	  -0.4348	  -0.6739	   0.5978	 123.9525	  44.9425	
 -17.5000	 -31.0000	  27.5000	  -0.3804	  -0.6739	   0.5978	 112.8781	  44.7700	
 -15.0000	 -31.0000	  27.5000	  -0.3261	  -0.6739	   0.5978	 101.8038	  44.5975	
 -12.5000	 -31.0000	  27.5000	  -0.2717	  -0.6739	   0.5978	  90.7294	  44.4250	
 -10.0000	 -31.0000	  27.5000	  -0.2174	  -0.6739	   0.5978	  79.7089	  43.6770	
  -7.5000	 -31.0000	  27.5000	  -0.1630	  -0.6739	   0.5978	  68.8950	  40.7231	
  -5.0000	 -31.0000	  27.5000	  -0.1087	  -0.6739	   0.5978	  58.1350	  37.1937	
  -2.5000	 -31.0000	  27.5000	  -0.0543	  -0.6739	   0.5978	  47.3750	  33.6644	
   0.0000	 -31.0000	  27.5000	   0.0000	  -0.6739	   0.5978	  37.8691	  30.1886	
   2.5000	 -31.0000	  27.5000	   0.0543	  -0.6739	   0.5978	  33.1706	  26.9181	
   5.0000	 -31.0000	  27.5000	   0.1087	  -0.6739	   0.5978	  29.7262	  23.7013	
   7.5000	 -31.0000	  27.5000	   0.1630	  -0.6739	   0.5978	  26.2819	  20.4844	
  10.0000	 -31.0000	  27.5000	   0.2174	  -0.6739	   0.5978	  23.1328	  17.6446	
  12.5000	 -31.0000	  27.5000	   0.2717	  -0.6739	   0.5978	  21.1156	  16.2506	
  15.0000	 -31.0000	  27.5000	   0.3261	  -0.6739	   0.5978	  19.3938	  15.2337	
  17.5000	 -31.0000	  27.5000	   0.3804	  -0.6739	   0.5978	  17.6719	  14.2169	
  20.0000	 -31.0000	  27.5000	   0.4348	  -0.6739	   0.5978	  15.9500	  13.2000	
 -20.0000	 -31.0000	  30.0000	  -0.4348	  -0.6739	   0.6522	 122.3950	  43.1350	
 -17.5000	 -31.0000	  30.0000	  -0.3804	  -0.6739	   0.6522	 110.7512	  42.9800	
 -15.0000	 -31.0000	  30.0000	  -0.3261	  -0.6739	   0.6522	  99.1075	  42.8250	
 -12.5000	 -31.0000	  30.0000	  -0.2717	  -0.6739	   0.6522	  87.4638	  42.6700	
 -10.0000	 -31.0000	  30.0000	  -0.2174	  -0.6739	   0.6522	  76.2436	  41.7903	
  -7.5000	 -31.0000	  30.0000	  -0.1630	  -0.6739	   0.6522	  66.0825	  39.0987	
  -5.0000	 -31.0000	  30.0000	  -0.1087	  -0.6739	   0.6522	  56.3450	  35.6825	
  -2.5000	 -31.0000	  30.0000	  -0.0543	  -0.6739	   0.6522	  46.6075	  32.2662	
   0.0000	 -31.0000	  30.0000	   0.0000	  -0.6739	   0.6522	  38.2869	  28.9856	
   2.5000	 -31.0000	  30.0000	   0.0543	  -0.6739	   0.6522	  33.5088	  26.0438	
   5.0000	 -31.0000	  30.0000	   0.1087	  -0.6739	   0.6522	  30.1475	  23.2375	
   7.5000	 -31.0000	  30.0000	   0.1630	  -0.6739	   0.6522	  26.7862	  20.4312	
  10.0000	 -31.0000	  30.0000	   0.2174	  -0.6739	   0.6522	  23.7733	  18.0028	
  12.5000	 -31.0000	  30.0000	   0.2717	  -0.6739	   0.6522	  21.6313	  16.5187	
  15.0000	 -31.0000	  30.0000	   0.3261	  -0.6739	   0.6522	  19.8375	  15.4125	
  17.5000	 -31.0000	  30.0000	   0.3804	  -0.6739	   0.6522	  18.0438	  14.3063	
  20.0000	 -31.0000	  30.0000	   0.4348	  -0.6739	   0.6522	  16.2500	  13.2000	
 -20.0000	 -31.0000	  32.5000	  -0.4348	  -0.6739	   0.7065	 120.8375	  41.3275	
 -17.5000	 -31.0000	  32.5000	  -0.3804	  -0.6739	   0.7065	 108.6244	  41.1900	
 -15.0000	 -31.0000	  32.5000	  -0.3261	  -0.6739	   0.7065	  96.4112	  41.0525	
 -12.5000	 -31.0000	  32.5000	  -0.2717	  -0.6739	   0.7065	  84.1981	  40.9150	
 -10.0000	 -31.0000	  32.5000	  -0.2174	  -0.6739	   0.7065	  72.5847	  40.2348	
  -7.5000	 -31.0000	  32.5000	  -0.1630	  -0.6739	   0.7065	  63.2700	  37.4744	
  -5.0000	 -31.0000	  32.5000	  -0.1087	  -0.6739	   0.7065	  54.5550	  34.1713	
  -2.5000	 -31.0000	  32.5000	  -0.0543	  -0.6739	   0.7065	  45.8400	  30.8681	
   0.0000	 -31.0000	  32.5000	   0.0000	  -0.6739	   0.7065	  38.0570	  27.7206	
   2.5000	 -31.0000	  32.5000	   0.0543	  -0.6739	   0.7065	  33.8469	  25.1694	
   5.0000	 -31.0000	  32.5000	   0.1087	  -0.6739	   0.7065	  30.5688	  22.7737	
   7.5000	 -31.0000	  32.5000	   0.1630	  -0.6739	   0.7065	  27.2906	  20.3781	
  10.0000	 -31.0000	  32.5000	   0.2174	  -0.6739	   0.7065	  24.2546	  18.1882	
  12.5000	 -31.0000	  32.5000	   0.2717	  -0.6739	   0.7065	  22.1469	  16.7869	
  15.0000	 -31.0000	  32.5000	   0.3261	  -0.6739	   0.7065	  20.2812	  15.5912	
  17.5000	 -31.0000	  32.5000	   0.3804	  -0.6739	   0.7065	  18.4156	  14.3956	
  20.0000	 -31.0000	  32.5000	   0.4348	  -0.6739	   0.7065	  16.5500	  13.2000	
 -20.0000	 -31.0000	  35.0000	  -0.4348	  -0.6739	   0.7609	 119.2800	  39.5200	
 -17.5000	 -31.0000	  35.0000	  -0.3804	  -0.6739	   0.7609	 105.2333	  39.5593	
 -15.0000	 -31.0000	  35.0000	  -0.3261	  -0.6739	   0.7609	  92.4992	  39.3886	
 -12.5000	 -31.0000	  35.0000	  -0.2717	  -0.6739	   0.7609	  80.3208	  39.1683	
 -10.0000	 -31.0000	  35.0000	  -0.2174	  -0.6739	   0.7609	  68.1500	  39.0400	
  -7.5000	 -31.0000	  35.0000	  -0.1630	  -0.6739	   0.7609	  60.1561	  35.7912	
  -5.0000	 -31.0000	  35.0000	  -0.1087	  -0.6739	   0.7609	  52.3536	  32.5947	
  -2.5000	 -31.0000	  35.0000	  -0.0543	  -0.6739	   0.7609	  44.7392	  29.4281	
   0.0000	 -31.0000	  35.0000	   0.0000	  -0.6739	   0.7609	  37.3800	  26.2800	
   2.5000	 -31.0000	  35.0000	   0.0543	  -0.6739	   0.7609	  33.8675	  24.2399	
   5.0000	 -31.0000	  35.0000	   0.1087	  -0.6739	   0.7609	  30.6197	  22.2106	
   7.5000	 -31.0000	  35.0000	   0.1630	  -0.6739	   0.7609	  27.5412	  20.2266	
  10.0000	 -31.0000	  35.0000	   0.2174	  -0.6739	   0.7609	  24.6000	  18.3400	
  12.5000	 -31.0000	  35.0000	   0.2717	  -0.6739	   0.7609	  22.4731	  16.9520	
  15.0000	 -31.0000	  35.0000	   0.3261	  -0.6739	   0.7609	  20.5217	  15.6586	
  17.5000	 -31.0000	  35.0000	   0.3804	  -0.6739	   0.7609	  18.6632	  14.4161	
  20.0000	 -31.0000	  35.0000	   0.4348	  -0.6739	   0.7609	  16.8500	  13.2000	
 -20.0000	 -31.0000	  37.5000	  -0.4348	  -0.6739	   0.8152	 108.4450	  39.0825	
 -17.5000	 -31.0000	  37.5000	  -0.3804	  -0.6739	   0.8152	  96.9963	  38.5394	
 -15.0000	 -31.0000	  37.5000	  -0.3261	  -0.6739	   0.8152	  85.5475	  37.9963	
 -12.5000	 -31.0000	  37.5000	  -0.2717	  -0.6739	   0.8152	  74.0988	  37.4531	
 -10.0000	 -31.0000	  37.5000	  -0.2174	  -0.6739	   0.8152	  63.4533	  36.4841	
  -7.5000	 -31.0000	  37.5000	  -0.1630	  -0.6739	   0.8152	  55.8869	  33.8825	
  -5.0000	 -31.0000	  37.5000	  -0.1087	  -0.6739	   0.8152	  49.1238	  30.8550	
  -2.5000	 -31.0000	  37.5000	  -0.0543	  -0.6739	   0.8152	  42.3606	  27.8275	
   0.0000	 -31.0000	  37.5000	   0.0000	  -0.6739	   0.8152	  36.2553	  25.0275	
   2.5000	 -31.0000	  37.5000	   0.0543	  -0.6739	   0.8152	  32.6713	  23.0994	
   5.0000	 -31.0000	  37.5000	   0.1087	  -0.6739	   0.8152	  29.7450	  21.3988	
   7.5000	 -31.0000	  37.5000	   0.1630	  -0.6739	   0.8152	  26.8188	  19.6981	
  10.0000	 -31.0000	  37.5000	   0.2174	  -0.6739	   0.8152	  24.0822	  18.0705	
  12.5000	 -31.0000	  37.5000	   0.2717	  -0.6739	   0.8152	  22.0731	  16.7225	
  15.0000	 -31.0000	  37.5000	   0.3261	  -0.6739	   0.8152	  20.2538	  15.4475	
  17.5000	 -31.0000	  37.5000	   0.3804	  -0.6739	   0.8152	  18.4344	  14.1725	
  20.0000	 -31.0000	  37.5000	   0.4348	  -0.6739	   0.8152	  16.6150	  12.8975	
 -20.0000	 -31.0000	  40.0000	  -0.4348	  -0.6739	   0.8696	  97.6100	  38.6450	
 -17.5000	 -31.0000	  40.0000	  -0.3804	  -0.6739	   0.8696	  87.4950	  37.6788	
 -15.0000	 -31.0000	  40.0000	  -0.3261	  -0.6739	   0.8696	  77.3800	  36.7125	
 -12.5000	 -31.0000	  40.0000	  -0.2717	  -0.6739	   0.8696	  67.2650	  35.7462	
 -10.0000	 -31.0000	  40.0000	  -0.2174	  -0.6739	   0.8696	  58.1014	  34.3581	
  -7.5000	 -31.0000	  40.0000	  -0.1630	  -0.6739	   0.8696	  51.3162	  31.9150	
  -5.0000	 -31.0000	  40.0000	  -0.1087	  -0.6739	   0.8696	  45.4825	  29.0500	
  -2.5000	 -31.0000	  40.0000	  -0.0543	  -0.6739	   0.8696	  39.6487	  26.1850	
   0.0000	 -31.0000	  40.0000	   0.0000	  -0.6739	   0.8696	  34.5208	  23.6419	
   2.5000	 -31.0000	  40.0000	   0.0543	  -0.6739	   0.8696	  31.1575	  21.9038	
   5.0000	 -31.0000	  40.0000	   0.1087	  -0.6739	   0.8696	  28.5000	  20.4875	
   7.5000	 -31.0000	  40.0000	   0.1630	  -0.6739	   0.8696	  25.8425	  19.0712	
  10.0000	 -31.0000	  40.0000	   0.2174	  -0.6739	   0.8696	  23.3975	  17.6886	
  12.5000	 -31.0000	  40.0000	   0.2717	  -0.6739	   0.8696	  21.4838	  16.3900	
  15.0000	 -31.0000	  40.0000	   0.3261	  -0.6739	   0.8696	  19.7825	  15.1250	
  17.5000	 -31.0000	  40.0000	   0.3804	  -0.6739	   0.8696	  18.0813	  13.8600	
  20.0000	 -31.0000	  40.0000	   0.4348	  -0.6739	   0.8696	  16.3800	  12.5950	
 -20.0000	 -31.0000	  42.5000	  -0.4348	  -0.6739	   0.9239	  86.7750	  38.2075	
 -17.5000	 -31.0000	  42.5000	  -0.3804	  -0.6739	   0.9239	  77.9938	  36.8181	
 -15.0000	 -31.0000	  42.5000	  -0.3261	  -0.6739	   0.9239	  69.2125	  35.4288	
 -12.5000	 -31.0000	  42.5000	  -0.2717	  -0.6739	   0.9239	  60.4313	  34.0394	
 -10.0000	 -31.0000	  42.5000	  -0.2174	  -0.6739	   0.9239	  52.3146	  32.4249	
  -7.5000	 -31.0000	  42.5000	  -0.1630	  -0.6739	   0.9239	  46.7456	  29.9475	
  -5.0000	 -31.0000	  42.5000	  -0.1087	  -0.6739	   0.9239	  41.8413	  27.2450	
  -2.5000	 -31.0000	  42.5000	  -0.0543	  -0.6739	   0.9239	  36.9369	  24.5425	
   0.0000	 -31.0000	  42.5000	   0.0000	  -0.6739	   0.9239	  32.4637	  22.1092	
   2.5000	 -31.0000	  42.5000	   0.0543	  -0.6739	   0.9239	  29.6438	  20.7081	
   5.0000	 -31.0000	  42.5000	   0.1087	  -0.6739	   0.9239	  27.2550	  19.5762	
   7.5000	 -31.0000	  42.5000	   0.1630	  -0.6739	   0.9239	  24.8663	  18.4444	
  10.0000	 -31.0000	  42.5000	   0.2174	  -0.6739	   0.9239	  22.6156	  17.2914	
  12.5000	 -31.0000	  42.5000	   0.2717	  -0.6739	   0.9239	  20.8944	  16.0575	
  15.0000	 -31.0000	  42.5000	   0.3261	  -0.6739	   0.9239	  19.3112	  14.8025	
  17.5000	 -31.0000	  42.5000	   0.3804	  -0.6739	   0.9239	  17.7281	  13.5475	
  20.0000	 -31.0000	  42.5000	   0.4348	  -0.6739	   0.9239	  16.1450	  12.2925	
 -20.0000	 -31.0000	  45.0000	  -0.4348	  -0.6739	   0.9783	  75.9400	  37.7700	
 -17.5000	 -31.0000	  45.0000	  -0.3804	  -0.6739	   0.9783	  68.2422	  35.5868	
 -15.0000	 -31.0000	  45.0000	  -0.3261	  -0.6739	   0.9783	  60.8378	  33.7806	
 -12.5000	 -31.0000	  45.0000	  -0.2717	  -0.6739	   0.9783	  53.5281	  32.1409	
 -10.0000	 -31.0000	  45.0000	  -0.2174	  -0.6739	   0.9783	  46.1500	  30.5200	
  -7.5000	 -31.0000	  45.0000	  -0.1630	  -0.6739	   0.9783	  42.1597	  27.9099	
  -5.0000	 -31.0000	  45.0000	  -0.1087	  -0.6739	   0.9783	  38.1331	  25.3906	
  -2.5000	 -31.0000	  45.0000	  -0.0543	  -0.6739	   0.9783	  34.1370	  22.8938	
   0.0000	 -31.0000	  45.0000	   0.0000	  -0.6739	   0.9783	  30.2500	  20.3600	
   2.5000	 -31.0000	  45.0000	   0.0543	  -0.6739	   0.9783	  28.0055	  19.4936	
   5.0000	 -31.0000	  45.0000	   0.1087	  -0.6739	   0.9783	  25.8483	  18.5828	
   7.5000	 -31.0000	  45.0000	   0.1630	  -0.6739	   0.9783	  23.7651	  17.7095	
  10.0000	 -31.0000	  45.0000	   0.2174	  -0.6739	   0.9783	  21.7700	  16.9700	
  12.5000	 -31.0000	  45.0000	   0.2717	  -0.6739	   0.9783	  20.2091	  15.6155	
  15.0000	 -31.0000	  45.0000	   0.3261	  -0.6739	   0.9783	  18.7536	  14.3939	
  17.5000	 -31.0000	  45.0000	   0.3804	  -0.6739	   0.9783	  17.3376	  13.2116	
  20.0000	 -31.0000	  45.0000	   0.4348	  -0.6739	   0.9783	  15.9100	  11.9900	
 -20.0000	 -31.0000	  47.5000	  -0.4348	  -0.6739	   1.0326	  63.1175	  34.6475	
 -17.5000	 -31.0000	  47.5000	  -0.3804	  -0.6739	   1.0326	  57.5312	  32.9344	
 -15.0000	 -31.0000	  47.5000	  -0.3261	  -0.6739	   1.0326	  51.9450	  31.2213	
 -12.5000	 -31.0000	  47.5000	  -0.2717	  -0.6739	   1.0326	  46.3588	  29.5081	
 -10.0000	 -31.0000	  47.5000	  -0.2174	  -0.6739	   1.0326	  41.1717	  27.7130	
  -7.5000	 -31.0000	  47.5000	  -0.1630	  -0.6739	   1.0326	  37.5150	  25.6038	
  -5.0000	 -31.0000	  47.5000	  -0.1087	  -0.6739	   1.0326	  34.2575	  23.4125	
  -2.5000	 -31.0000	  47.5000	  -0.0543	  -0.6739	   1.0326	  31.0000	  21.2213	
   0.0000	 -31.0000	  47.5000	   0.0000	  -0.6739	   1.0326	  27.9834	  19.2645	
   2.5000	 -31.0000	  47.5000	   0.0543	  -0.6739	   1.0326	  25.8900	  18.2069	
   5.0000	 -31.0000	  47.5000	   0.1087	  -0.6739	   1.0326	  24.0375	  17.3837	
   7.5000	 -31.0000	  47.5000	   0.1630	  -0.6739	   1.0326	  22.1850	  16.5606	
  10.0000	 -31.0000	  47.5000	   0.2174	  -0.6739	   1.0326	  20.4484	  15.7100	
  12.5000	 -31.0000	  47.5000	   0.2717	  -0.6739	   1.0326	  19.1562	  14.7538	
  15.0000	 -31.0000	  47.5000	   0.3261	  -0.6739	   1.0326	  17.9800	  13.7700	
  17.5000	 -31.0000	  47.5000	   0.3804	  -0.6739	   1.0326	  16.8038	  12.7862	
  20.0000	 -31.0000	  47.5000	   0.4348	  -0.6739	   1.0326	  15.6275	  11.8025	
 -20.0000	 -31.0000	  50.0000	  -0.4348	  -0.6739	   1.0870	  50.2950	  31.5250	
 -17.5000	 -31.0000	  50.0000	  -0.3804	  -0.6739	   1.0870	  46.5700	  29.9112	
 -15.0000	 -31.0000	  50.0000	  -0.3261	  -0.6739	   1.0870	  42.8450	  28.2975	
 -12.5000	 -31.0000	  50.0000	  -0.2717	  -0.6739	   1.0870	  39.1200	  26.6837	
 -10.0000	 -31.0000	  50.0000	  -0.2174	  -0.6739	   1.0870	  35.6583	  25.0192	
  -7.5000	 -31.0000	  50.0000	  -0.1630	  -0.6739	   1.0870	  32.8550	  23.2275	
  -5.0000	 -31.0000	  50.0000	  -0.1087	  -0.6739	   1.0870	  30.3150	  21.3850	
  -2.5000	 -31.0000	  50.0000	  -0.0543	  -0.6739	   1.0870	  27.7750	  19.5425	
   0.0000	 -31.0000	  50.0000	   0.0000	  -0.6739	   1.0870	  25.4472	  17.9319	
   2.5000	 -31.0000	  50.0000	   0.0543	  -0.6739	   1.0870	  23.6500	  16.9012	
   5.0000	 -31.0000	  50.0000	   0.1087	  -0.6739	   1.0870	  22.0650	  16.1025	
   7.5000	 -31.0000	  50.0000	   0.1630	  -0.6739	   1.0870	  20.4800	  15.3038	
  10.0000	 -31.0000	  50.0000	   0.2174	  -0.6739	   1.0870	  19.0500	  14.5219	
  12.5000	 -31.0000	  50.0000	   0.2717	  -0.6739	   1.0870	  18.0075	  13.7825	
  15.0000	 -31.0000	  50.0000	   0.3261	  -0.6739	   1.0870	  17.1200	  13.0600	
  17.5000	 -31.0000	  50.0000	   0.3804	  -0.6739	   1.0870	  16.2325	  12.3375	
  20.0000	 -31.0000	  50.0000	   0.4348	  -0.6739	   1.0870	  15.3450	  11.6150	
 -20.0000	 -31.0000	  52.5000	  -0.4348	  -0.6739	   1.1413	  37.4725	  28.4025	
 -17.5000	 -31.0000	  52.5000	  -0.3804	  -0.6739	   1.1413	  35.6088	  26.8881	
 -15.0000	 -31.0000	  52.5000	  -0.3261	  -0.6739	   1.1413	  33.7450	  25.3738	
 -12.5000	 -31.0000	  52.5000	  -0.2717	  -0.6739	   1.1413	  31.8812	  23.8594	
 -10.0000	 -31.0000	  52.5000	  -0.2174	  -0.6739	   1.1413	  30.0246	  22.3485	
  -7.5000	 -31.0000	  52.5000	  -0.1630	  -0.6739	   1.1413	  28.1950	  20.8513	
  -5.0000	 -31.0000	  52.5000	  -0.1087	  -0.6739	   1.1413	  26.3725	  19.3575	
  -2.5000	 -31.0000	  52.5000	  -0.0543	  -0.6739	   1.1413	  24.5500	  17.8637	
   0.0000	 -31.0000	  52.5000	   0.0000	  -0.6739	   1.1413	  22.8141	  16.4933	
   2.5000	 -31.0000	  52.5000	   0.0543	  -0.6739	   1.1413	  21.4100	  15.5956	
   5.0000	 -31.0000	  52.5000	   0.1087	  -0.6739	   1.1413	  20.0925	  14.8212	
   7.5000	 -31.0000	  52.5000	   0.1630	  -0.6739	   1.1413	  18.7750	  14.0469	
  10.0000	 -31.0000	  52.5000	   0.2174	  -0.6739	   1.1413	  17.5807	  13.3262	
  12.5000	 -31.0000	  52.5000	   0.2717	  -0.6739	   1.1413	  16.8588	  12.8112	
  15.0000	 -31.0000	  52.5000	   0.3261	  -0.6739	   1.1413	  16.2600	  12.3500	
  17.5000	 -31.0000	  52.5000	   0.3804	  -0.6739	   1.1413	  15.6613	  11.8887	
  20.0000	 -31.0000	  52.5000	   0.4348	  -0.6739	   1.1413	  15.0625	  11.4275	
 -20.0000	 -31.0000	  55.0000	  -0.4348	  -0.6739	   1.1957	  24.6500	  25.2800	
 -17.5000	 -31.0000	  55.0000	  -0.3804	  -0.6739	   1.1957	  25.6646	  23.7635	
 -15.0000	 -31.0000	  55.0000	  -0.3261	  -0.6739	   1.1957	  25.6092	  22.4197	
 -12.5000	 -31.0000	  55.0000	  -0.2717	  -0.6739	   1.1957	  25.1130	  21.0898	
 -10.0000	 -31.0000	  55.0000	  -0.2174	  -0.6739	   1.1957	  24.6400	  19.6200	
  -7.5000	 -31.0000	  55.0000	  -0.1630	  -0.6739	   1.1957	  23.6723	  18.5904	
  -5.0000	 -31.0000	  55.0000	  -0.1087	  -0.6739	   1.1957	  22.5303	  17.4569	
  -2.5000	 -31.0000	  55.0000	  -0.0543	  -0.6739	   1.1957	  21.3425	  16.2655	
   0.0000	 -31.0000	  55.0000	   0.0000	  -0.6739	   1.1957	  20.2200	  15.0400	
   2.5000	 -31.0000	  55.0000	   0.0543	  -0.6739	   1.1957	  19.1304	  14.3652	
   5.0000	 -31.0000	  55.0000	   0.1087	  -0.6739	   1.1957	  18.0722	  13.6533	
   7.5000	 -31.0000	  55.0000	   0.1630	  -0.6739	   1.1957	  17.0359	  12.8896	
  10.0000	 -31.0000	  55.0000	   0.2174	  -0.6739	   1.1957	  16.0200	  12.0400	
  12.5000	 -31.0000	  55.0000	   0.2717	  -0.6739	   1.1957	  15.6437	  11.9087	
  15.0000	 -31.0000	  55.0000	   0.3261	  -0.6739	   1.1957	  15.2686	  11.6731	
  17.5000	 -31.0000	  55.0000	   0.3804	  -0.6739	   1.1957	  14.9536	  11.4223	
  20.0000	 -31.0000	  55.0000	   0.4348	  -0.6739	   1.1957	  14.7800	  11.2400	
 -20.0000	 -31.0000	  57.5000	  -0.4348	  -0.6739	   1.2500	  19.3550	  21.1100	
 -17.5000	 -31.0000	  57.5000	  -0.3804	  -0.6739	   1.2500	  19.6194	  20.2500	
 -15.0000	 -31.0000	  57.5000	  -0.3261	  -0.6739	   1.2500	  19.8838	  19.3900	
 -12.5000	 -31.0000	  57.5000	  -0.2717	  -0.6739	   1.2500	  20.1481	  18.5300	
 -10.0000	 -31.0000	  57.5000	  -0.2174	  -0.6739	   1.2500	  20.2409	  17.6635	
  -7.5000	 -31.0000	  57.5000	  -0.1630	  -0.6739	   1.2500	  19.6756	  16.7719	
  -5.0000	 -31.0000	  57.5000	  -0.1087	  -0.6739	   1.2500	  18.9387	  15.8738	