Variables = "x [mm]"	"y [mm]"	"z [mm]"	"x/B"	"y/B"	"z/B"	"C*"	"C*std"	
Zone T = "West_y=87mm_Tec" I=17 J=25 F=POINT
 -20.0000	  87.0000	   5.0000	  -0.4348	   1.8913	   0.1087	  87.1493	  42.7228	
 -17.5000	  87.0000	   5.0000	  -0.3804	   1.8913	   0.1087	  84.4806	  54.9925	
 -15.0000	  87.0000	   5.0000	  -0.3261	   1.8913	   0.1087	  81.8338	  67.3550	
 -12.5000	  87.0000	   5.0000	  -0.2717	   1.8913	   0.1087	  79.1869	  79.7175	
 -10.0000	  87.0000	   5.0000	  -0.2174	   1.8913	   0.1087	  76.5400	  92.0800	
  -7.5000	  87.0000	   5.0000	  -0.1630	   1.8913	   0.1087	  64.2575	  80.9700	
  -5.0000	  87.0000	   5.0000	  -0.1087	   1.8913	   0.1087	  51.9750	  69.8600	
  -2.5000	  87.0000	   5.0000	  -0.0543	   1.8913	   0.1087	  39.6925	  58.7500	
   0.0000	  87.0000	   5.0000	   0.0000	   1.8913	   0.1087	  27.4100	  47.6400	
   2.5000	  87.0000	   5.0000	   0.0543	   1.8913	   0.1087	  24.2200	  39.7750	
   5.0000	  87.0000	   5.0000	   0.1087	   1.8913	   0.1087	  21.0300	  31.9100	
   7.5000	  87.0000	   5.0000	   0.1630	   1.8913	   0.1087	  17.8400	  24.0450	
  10.0000	  87.0000	   5.0000	   0.2174	   1.8913	   0.1087	  14.6500	  16.1800	
  12.5000	  87.0000	   5.0000	   0.2717	   1.8913	   0.1087	  14.4125	  15.2825	
  15.0000	  87.0000	   5.0000	   0.3261	   1.8913	   0.1087	  14.1750	  14.3850	
  17.5000	  87.0000	   5.0000	   0.3804	   1.8913	   0.1087	  13.9375	  13.4875	
  20.0000	  87.0000	   5.0000	   0.4348	   1.8913	   0.1087	  13.7000	  12.5900	
 -20.0000	  87.0000	   7.5000	  -0.4348	   1.8913	   0.1630	  78.6943	  43.3406	
 -17.5000	  87.0000	   7.5000	  -0.3804	   1.8913	   0.1630	  75.2638	  51.5442	
 -15.0000	  87.0000	   7.5000	  -0.3261	   1.8913	   0.1630	  71.6575	  59.8278	
 -12.5000	  87.0000	   7.5000	  -0.2717	   1.8913	   0.1630	  68.0513	  68.1114	
 -10.0000	  87.0000	   7.5000	  -0.2174	   1.8913	   0.1630	  63.2879	  73.1806	
  -7.5000	  87.0000	   7.5000	  -0.1630	   1.8913	   0.1630	  54.6338	  67.4413	
  -5.0000	  87.0000	   7.5000	  -0.1087	   1.8913	   0.1630	  44.8225	  58.4875	
  -2.5000	  87.0000	   7.5000	  -0.0543	   1.8913	   0.1630	  35.0112	  49.5338	
   0.0000	  87.0000	   7.5000	   0.0000	   1.8913	   0.1630	  26.4198	  41.0284	
   2.5000	  87.0000	   7.5000	   0.0543	   1.8913	   0.1630	  22.5044	  34.2419	
   5.0000	  87.0000	   7.5000	   0.1087	   1.8913	   0.1630	  19.8088	  27.9038	
   7.5000	  87.0000	   7.5000	   0.1630	   1.8913	   0.1630	  17.1131	  21.5656	
  10.0000	  87.0000	   7.5000	   0.2174	   1.8913	   0.1630	  14.8147	  16.1614	
  12.5000	  87.0000	   7.5000	   0.2717	   1.8913	   0.1630	  14.0387	  14.3369	
  15.0000	  87.0000	   7.5000	   0.3261	   1.8913	   0.1630	  13.6600	  13.4463	
  17.5000	  87.0000	   7.5000	   0.3804	   1.8913	   0.1630	  13.2812	  12.5556	
  20.0000	  87.0000	   7.5000	   0.4348	   1.8913	   0.1630	  12.9025	  11.6650	
 -20.0000	  87.0000	  10.0000	  -0.4348	   1.8913	   0.2174	  70.2393	  43.9584	
 -17.5000	  87.0000	  10.0000	  -0.3804	   1.8913	   0.2174	  66.0469	  48.0959	
 -15.0000	  87.0000	  10.0000	  -0.3261	   1.8913	   0.2174	  61.4813	  52.3006	
 -12.5000	  87.0000	  10.0000	  -0.2717	   1.8913	   0.2174	  56.9156	  56.5053	
 -10.0000	  87.0000	  10.0000	  -0.2174	   1.8913	   0.2174	  51.6835	  58.0668	
  -7.5000	  87.0000	  10.0000	  -0.1630	   1.8913	   0.2174	  45.0100	  53.9125	
  -5.0000	  87.0000	  10.0000	  -0.1087	   1.8913	   0.2174	  37.6700	  47.1150	
  -2.5000	  87.0000	  10.0000	  -0.0543	   1.8913	   0.2174	  30.3300	  40.3175	
   0.0000	  87.0000	  10.0000	   0.0000	   1.8913	   0.2174	  24.1319	  33.9614	
   2.5000	  87.0000	  10.0000	   0.0543	   1.8913	   0.2174	  20.7888	  28.7088	
   5.0000	  87.0000	  10.0000	   0.1087	   1.8913	   0.2174	  18.5875	  23.8975	
   7.5000	  87.0000	  10.0000	   0.1630	   1.8913	   0.2174	  16.3862	  19.0862	
  10.0000	  87.0000	  10.0000	   0.2174	   1.8913	   0.2174	  14.5586	  15.1478	
  12.5000	  87.0000	  10.0000	   0.2717	   1.8913	   0.2174	  13.6650	  13.3912	
  15.0000	  87.0000	  10.0000	   0.3261	   1.8913	   0.2174	  13.1450	  12.5075	
  17.5000	  87.0000	  10.0000	   0.3804	   1.8913	   0.2174	  12.6250	  11.6238	
  20.0000	  87.0000	  10.0000	   0.4348	   1.8913	   0.2174	  12.1050	  10.7400	
 -20.0000	  87.0000	  12.5000	  -0.4348	   1.8913	   0.2717	  61.7843	  44.5762	
 -17.5000	  87.0000	  12.5000	  -0.3804	   1.8913	   0.2717	  56.8300	  44.6477	
 -15.0000	  87.0000	  12.5000	  -0.3261	   1.8913	   0.2717	  51.3050	  44.7734	
 -12.5000	  87.0000	  12.5000	  -0.2717	   1.8913	   0.2717	  45.7800	  44.8992	
 -10.0000	  87.0000	  12.5000	  -0.2174	   1.8913	   0.2717	  40.3774	  44.1360	
  -7.5000	  87.0000	  12.5000	  -0.1630	   1.8913	   0.2717	  35.3863	  40.3837	
  -5.0000	  87.0000	  12.5000	  -0.1087	   1.8913	   0.2717	  30.5175	  35.7425	
  -2.5000	  87.0000	  12.5000	  -0.0543	   1.8913	   0.2717	  25.6487	  31.1013	
   0.0000	  87.0000	  12.5000	   0.0000	   1.8913	   0.2717	  21.3220	  26.6926	
   2.5000	  87.0000	  12.5000	   0.0543	   1.8913	   0.2717	  19.0731	  23.1756	
   5.0000	  87.0000	  12.5000	   0.1087	   1.8913	   0.2717	  17.3663	  19.8912	
   7.5000	  87.0000	  12.5000	   0.1630	   1.8913	   0.2717	  15.6594	  16.6069	
  10.0000	  87.0000	  12.5000	   0.2174	   1.8913	   0.2717	  14.1318	  13.7352	
  12.5000	  87.0000	  12.5000	   0.2717	   1.8913	   0.2717	  13.2913	  12.4456	
  15.0000	  87.0000	  12.5000	   0.3261	   1.8913	   0.2717	  12.6300	  11.5688	
  17.5000	  87.0000	  12.5000	   0.3804	   1.8913	   0.2717	  11.9688	  10.6919	
  20.0000	  87.0000	  12.5000	   0.4348	   1.8913	   0.2717	  11.3075	   9.8150	
 -20.0000	  87.0000	  15.0000	  -0.4348	   1.8913	   0.3261	  53.3293	  45.1940	
 -17.5000	  87.0000	  15.0000	  -0.3804	   1.8913	   0.3261	  47.8097	  41.2045	
 -15.0000	  87.0000	  15.0000	  -0.3261	   1.8913	   0.3261	  42.0999	  37.8851	
 -12.5000	  87.0000	  15.0000	  -0.2717	   1.8913	   0.3261	  35.7481	  34.4532	
 -10.0000	  87.0000	  15.0000	  -0.2174	   1.8913	   0.3261	  28.1600	  29.3400	
  -7.5000	  87.0000	  15.0000	  -0.1630	   1.8913	   0.3261	  27.1385	  28.8234	
  -5.0000	  87.0000	  15.0000	  -0.1087	   1.8913	   0.3261	  24.6664	  26.4833	
  -2.5000	  87.0000	  15.0000	  -0.0543	   1.8913	   0.3261	  21.5993	  23.1771	
   0.0000	  87.0000	  15.0000	   0.0000	   1.8913	   0.3261	  18.5700	  19.4000	
   2.5000	  87.0000	  15.0000	   0.0543	   1.8913	   0.3261	  17.5528	  18.3736	
   5.0000	  87.0000	  15.0000	   0.1087	   1.8913	   0.3261	  16.3147	  16.5439	
   7.5000	  87.0000	  15.0000	   0.1630	   1.8913	   0.3261	  14.9990	  14.4129	
  10.0000	  87.0000	  15.0000	   0.2174	   1.8913	   0.3261	  13.7200	  12.3700	
  12.5000	  87.0000	  15.0000	   0.2717	   1.8913	   0.3261	  12.9462	  11.5767	
  15.0000	  87.0000	  15.0000	   0.3261	   1.8913	   0.3261	  12.1867	  10.7478	
  17.5000	  87.0000	  15.0000	   0.3804	   1.8913	   0.3261	  11.3944	   9.8650	
  20.0000	  87.0000	  15.0000	   0.4348	   1.8913	   0.3261	  10.5100	   8.8900	
 -20.0000	  87.0000	  17.5000	  -0.4348	   1.8913	   0.3804	  48.8864	  41.4562	
 -17.5000	  87.0000	  17.5000	  -0.3804	   1.8913	   0.3804	  43.7375	  37.8912	
 -15.0000	  87.0000	  17.5000	  -0.3261	   1.8913	   0.3804	  37.9125	  34.2975	
 -12.5000	  87.0000	  17.5000	  -0.2717	   1.8913	   0.3804	  32.0875	  30.7037	
 -10.0000	  87.0000	  17.5000	  -0.2174	   1.8913	   0.3804	  26.9577	  27.3510	
  -7.5000	  87.0000	  17.5000	  -0.1630	   1.8913	   0.3804	  24.1656	  24.8087	
  -5.0000	  87.0000	  17.5000	  -0.1087	   1.8913	   0.3804	  22.0687	  22.5075	
  -2.5000	  87.0000	  17.5000	  -0.0543	   1.8913	   0.3804	  19.9719	  20.2062	
   0.0000	  87.0000	  17.5000	   0.0000	   1.8913	   0.3804	  18.0470	  18.0371	
   2.5000	  87.0000	  17.5000	   0.0543	   1.8913	   0.3804	  16.7812	  16.3744	
   5.0000	  87.0000	  17.5000	   0.1087	   1.8913	   0.3804	  15.6875	  14.8437	
   7.5000	  87.0000	  17.5000	   0.1630	   1.8913	   0.3804	  14.5938	  13.3131	
  10.0000	  87.0000	  17.5000	   0.2174	   1.8913	   0.3804	  13.5523	  11.9111	
  12.5000	  87.0000	  17.5000	   0.2717	   1.8913	   0.3804	  12.7112	  11.0019	
  15.0000	  87.0000	  17.5000	   0.3261	   1.8913	   0.3804	  11.9225	  10.2212	
  17.5000	  87.0000	  17.5000	   0.3804	   1.8913	   0.3804	  11.1337	   9.4406	
  20.0000	  87.0000	  17.5000	   0.4348	   1.8913	   0.3804	  10.3450	   8.6600	
 -20.0000	  87.0000	  20.0000	  -0.4348	   1.8913	   0.4348	  44.4434	  37.7184	
 -17.5000	  87.0000	  20.0000	  -0.3804	   1.8913	   0.4348	  39.8619	  34.5831	
 -15.0000	  87.0000	  20.0000	  -0.3261	   1.8913	   0.4348	  34.6962	  31.3488	
 -12.5000	  87.0000	  20.0000	  -0.2717	   1.8913	   0.4348	  29.5306	  28.1144	
 -10.0000	  87.0000	  20.0000	  -0.2174	   1.8913	   0.4348	  25.1745	  25.1483	
  -7.5000	  87.0000	  20.0000	  -0.1630	   1.8913	   0.4348	  22.5688	  22.7625	
  -5.0000	  87.0000	  20.0000	  -0.1087	   1.8913	   0.4348	  20.7725	  20.6450	
  -2.5000	  87.0000	  20.0000	  -0.0543	   1.8913	   0.4348	  18.9763	  18.5275	
   0.0000	  87.0000	  20.0000	   0.0000	   1.8913	   0.4348	  17.3625	  16.5908	
   2.5000	  87.0000	  20.0000	   0.0543	   1.8913	   0.4348	  16.2050	  15.1063	
   5.0000	  87.0000	  20.0000	   0.1087	   1.8913	   0.4348	  15.2300	  13.8025	
   7.5000	  87.0000	  20.0000	   0.1630	   1.8913	   0.4348	  14.2550	  12.4987	
  10.0000	  87.0000	  20.0000	   0.2174	   1.8913	   0.4348	  13.3244	  11.3311	
  12.5000	  87.0000	  20.0000	   0.2717	   1.8913	   0.4348	  12.5050	  10.5037	
  15.0000	  87.0000	  20.0000	   0.3261	   1.8913	   0.4348	  11.7300	   9.8125	
  17.5000	  87.0000	  20.0000	   0.3804	   1.8913	   0.4348	  10.9550	   9.1213	
  20.0000	  87.0000	  20.0000	   0.4348	   1.8913	   0.4348	  10.1800	   8.4300	
 -20.0000	  87.0000	  22.5000	  -0.4348	   1.8913	   0.4891	  40.0004	  33.9806	
 -17.5000	  87.0000	  22.5000	  -0.3804	   1.8913	   0.4891	  35.9862	  31.2750	
 -15.0000	  87.0000	  22.5000	  -0.3261	   1.8913	   0.4891	  31.4800	  28.4000	
 -12.5000	  87.0000	  22.5000	  -0.2717	   1.8913	   0.4891	  26.9737	  25.5250	
 -10.0000	  87.0000	  22.5000	  -0.2174	   1.8913	   0.4891	  23.0289	  22.8255	
  -7.5000	  87.0000	  22.5000	  -0.1630	   1.8913	   0.4891	  20.9719	  20.7162	
  -5.0000	  87.0000	  22.5000	  -0.1087	   1.8913	   0.4891	  19.4762	  18.7825	
  -2.5000	  87.0000	  22.5000	  -0.0543	   1.8913	   0.4891	  17.9806	  16.8488	
   0.0000	  87.0000	  22.5000	   0.0000	   1.8913	   0.4891	  16.5946	  15.0619	
   2.5000	  87.0000	  22.5000	   0.0543	   1.8913	   0.4891	  15.6288	  13.8381	
   5.0000	  87.0000	  22.5000	   0.1087	   1.8913	   0.4891	  14.7725	  12.7613	
   7.5000	  87.0000	  22.5000	   0.1630	   1.8913	   0.4891	  13.9162	  11.6844	
  10.0000	  87.0000	  22.5000	   0.2174	   1.8913	   0.4891	  13.0763	  10.6889	
  12.5000	  87.0000	  22.5000	   0.2717	   1.8913	   0.4891	  12.2988	  10.0056	
  15.0000	  87.0000	  22.5000	   0.3261	   1.8913	   0.4891	  11.5375	   9.4037	
  17.5000	  87.0000	  22.5000	   0.3804	   1.8913	   0.4891	  10.7762	   8.8019	
  20.0000	  87.0000	  22.5000	   0.4348	   1.8913	   0.4891	  10.0150	   8.2000	
 -20.0000	  87.0000	  25.0000	  -0.4348	   1.8913	   0.5435	  35.5575	  30.2428	
 -17.5000	  87.0000	  25.0000	  -0.3804	   1.8913	   0.5435	  32.2094	  28.0266	
 -15.0000	  87.0000	  25.0000	  -0.3261	   1.8913	   0.5435	  28.6107	  25.6833	
 -12.5000	  87.0000	  25.0000	  -0.2717	   1.8913	   0.5435	  24.7114	  23.1547	
 -10.0000	  87.0000	  25.0000	  -0.2174	   1.8913	   0.5435	  20.5700	  20.4200	
  -7.5000	  87.0000	  25.0000	  -0.1630	   1.8913	   0.5435	  19.6623	  18.9474	
  -5.0000	  87.0000	  25.0000	  -0.1087	   1.8913	   0.5435	  18.4597	  17.2519	
  -2.5000	  87.0000	  25.0000	  -0.0543	   1.8913	   0.5435	  17.1293	  15.4047	
   0.0000	  87.0000	  25.0000	   0.0000	   1.8913	   0.5435	  15.7900	  13.4200	
   2.5000	  87.0000	  25.0000	   0.0543	   1.8913	   0.5435	  15.1057	  12.7427	
   5.0000	  87.0000	  25.0000	   0.1087	   1.8913	   0.5435	  14.3586	  11.8911	
   7.5000	  87.0000	  25.0000	   0.1630	   1.8913	   0.5435	  13.5915	  10.9613	
  10.0000	  87.0000	  25.0000	   0.2174	   1.8913	   0.5435	  12.8400	  10.0200	
  12.5000	  87.0000	  25.0000	   0.2717	   1.8913	   0.5435	  12.0886	   9.5459	
  15.0000	  87.0000	  25.0000	   0.3261	   1.8913	   0.5435	  11.3422	   9.0289	
  17.5000	  87.0000	  25.0000	   0.3804	   1.8913	   0.5435	  10.5971	   8.4964	
  20.0000	  87.0000	  25.0000	   0.4348	   1.8913	   0.5435	   9.8500	   7.9700	
 -20.0000	  87.0000	  27.5000	  -0.4348	   1.8913	   0.5978	  34.0131	  28.1944	
 -17.5000	  87.0000	  27.5000	  -0.3804	   1.8913	   0.5978	  30.9181	  26.2817	
 -15.0000	  87.0000	  27.5000	  -0.3261	   1.8913	   0.5978	  27.5338	  24.1653	
 -12.5000	  87.0000	  27.5000	  -0.2717	   1.8913	   0.5978	  24.1494	  22.0489	
 -10.0000	  87.0000	  27.5000	  -0.2174	   1.8913	   0.5978	  21.1516	  20.0119	
  -7.5000	  87.0000	  27.5000	  -0.1630	   1.8913	   0.5978	  19.4537	  18.2419	
  -5.0000	  87.0000	  27.5000	  -0.1087	   1.8913	   0.5978	  18.1425	  16.5512	
  -2.5000	  87.0000	  27.5000	  -0.0543	   1.8913	   0.5978	  16.8312	  14.8606	
   0.0000	  87.0000	  27.5000	   0.0000	   1.8913	   0.5978	  15.6191	  13.3123	
   2.5000	  87.0000	  27.5000	   0.0543	   1.8913	   0.5978	  14.7869	  12.3094	
   5.0000	  87.0000	  27.5000	   0.1087	   1.8913	   0.5978	  14.0537	  11.4488	
   7.5000	  87.0000	  27.5000	   0.1630	   1.8913	   0.5978	  13.3206	  10.5881	
  10.0000	  87.0000	  27.5000	   0.2174	   1.8913	   0.5978	  12.5891	   9.7903	
  12.5000	  87.0000	  27.5000	   0.2717	   1.8913	   0.5978	  11.8638	   9.2331	
  15.0000	  87.0000	  27.5000	   0.3261	   1.8913	   0.5978	  11.1400	   8.7387	
  17.5000	  87.0000	  27.5000	   0.3804	   1.8913	   0.5978	  10.4163	   8.2444	
  20.0000	  87.0000	  27.5000	   0.4348	   1.8913	   0.5978	   9.6925	   7.7500	
 -20.0000	  87.0000	  30.0000	  -0.4348	   1.8913	   0.6522	  32.4687	  26.1461	
 -17.5000	  87.0000	  30.0000	  -0.3804	   1.8913	   0.6522	  29.7256	  24.5966	
 -15.0000	  87.0000	  30.0000	  -0.3261	   1.8913	   0.6522	  26.8038	  22.8794	
 -12.5000	  87.0000	  30.0000	  -0.2717	   1.8913	   0.6522	  23.8819	  21.1622	
 -10.0000	  87.0000	  30.0000	  -0.2174	   1.8913	   0.6522	  21.3190	  19.4656	
  -7.5000	  87.0000	  30.0000	  -0.1630	   1.8913	   0.6522	  19.5325	  17.8137	
  -5.0000	  87.0000	  30.0000	  -0.1087	   1.8913	   0.6522	  18.1050	  16.1825	
  -2.5000	  87.0000	  30.0000	  -0.0543	   1.8913	   0.6522	  16.6775	  14.5512	
   0.0000	  87.0000	  30.0000	   0.0000	   1.8913	   0.6522	  15.4053	  13.0889	
   2.5000	  87.0000	  30.0000	   0.0543	   1.8913	   0.6522	  14.5213	  12.0488	
   5.0000	  87.0000	  30.0000	   0.1087	   1.8913	   0.6522	  13.7925	  11.1775	
   7.5000	  87.0000	  30.0000	   0.1630	   1.8913	   0.6522	  13.0637	  10.3062	
  10.0000	  87.0000	  30.0000	   0.2174	   1.8913	   0.6522	  12.3414	   9.5228	
  12.5000	  87.0000	  30.0000	   0.2717	   1.8913	   0.6522	  11.6350	   8.9587	
  15.0000	  87.0000	  30.0000	   0.3261	   1.8913	   0.6522	  10.9350	   8.4825	
  17.5000	  87.0000	  30.0000	   0.3804	   1.8913	   0.6522	  10.2350	   8.0063	
  20.0000	  87.0000	  30.0000	   0.4348	   1.8913	   0.6522	   9.5350	   7.5300	
 -20.0000	  87.0000	  32.5000	  -0.4348	   1.8913	   0.7065	  30.9244	  24.0977	
 -17.5000	  87.0000	  32.5000	  -0.3804	   1.8913	   0.7065	  28.5331	  22.9114	
 -15.0000	  87.0000	  32.5000	  -0.3261	   1.8913	   0.7065	  26.0738	  21.5934	
 -12.5000	  87.0000	  32.5000	  -0.2717	   1.8913	   0.7065	  23.6144	  20.2755	
 -10.0000	  87.0000	  32.5000	  -0.2174	   1.8913	   0.7065	  21.3257	  18.9102	
  -7.5000	  87.0000	  32.5000	  -0.1630	   1.8913	   0.7065	  19.6113	  17.3856	
  -5.0000	  87.0000	  32.5000	  -0.1087	   1.8913	   0.7065	  18.0675	  15.8137	
  -2.5000	  87.0000	  32.5000	  -0.0543	   1.8913	   0.7065	  16.5237	  14.2419	
   0.0000	  87.0000	  32.5000	   0.0000	   1.8913	   0.7065	  15.1205	  12.7883	
   2.5000	  87.0000	  32.5000	   0.0543	   1.8913	   0.7065	  14.2556	  11.7881	
   5.0000	  87.0000	  32.5000	   0.1087	   1.8913	   0.7065	  13.5312	  10.9062	
   7.5000	  87.0000	  32.5000	   0.1630	   1.8913	   0.7065	  12.8069	  10.0244	
  10.0000	  87.0000	  32.5000	   0.2174	   1.8913	   0.7065	  12.0907	   9.2151	
  12.5000	  87.0000	  32.5000	   0.2717	   1.8913	   0.7065	  11.4062	   8.6844	
  15.0000	  87.0000	  32.5000	   0.3261	   1.8913	   0.7065	  10.7300	   8.2262	
  17.5000	  87.0000	  32.5000	   0.3804	   1.8913	   0.7065	  10.0538	   7.7681	
  20.0000	  87.0000	  32.5000	   0.4348	   1.8913	   0.7065	   9.3775	   7.3100	
 -20.0000	  87.0000	  35.0000	  -0.4348	   1.8913	   0.7609	  29.3800	  22.0494	
 -17.5000	  87.0000	  35.0000	  -0.3804	   1.8913	   0.7609	  27.3289	  21.2487	
 -15.0000	  87.0000	  35.0000	  -0.3261	   1.8913	   0.7609	  25.2537	  20.3374	
 -12.5000	  87.0000	  35.0000	  -0.2717	   1.8913	   0.7609	  23.2217	  19.3655	
 -10.0000	  87.0000	  35.0000	  -0.2174	   1.8913	   0.7609	  21.3500	  18.4700	
  -7.5000	  87.0000	  35.0000	  -0.1630	   1.8913	   0.7609	  19.5294	  16.8933	
  -5.0000	  87.0000	  35.0000	  -0.1087	   1.8913	   0.7609	  17.9025	  15.4064	
  -2.5000	  87.0000	  35.0000	  -0.0543	   1.8913	   0.7609	  16.3339	  13.9371	
   0.0000	  87.0000	  35.0000	   0.0000	   1.8913	   0.7609	  14.7100	  12.4200	
   2.5000	  87.0000	  35.0000	   0.0543	   1.8913	   0.7609	  14.0297	  11.5951	
   5.0000	  87.0000	  35.0000	   0.1087	   1.8913	   0.7609	  13.3392	  10.7597	
   7.5000	  87.0000	  35.0000	   0.1630	   1.8913	   0.7609	  12.6170	   9.8673	
  10.0000	  87.0000	  35.0000	   0.2174	   1.8913	   0.7609	  11.8300	   8.8500	
  12.5000	  87.0000	  35.0000	   0.2717	   1.8913	   0.7609	  11.2491	   8.5492	
  15.0000	  87.0000	  35.0000	   0.3261	   1.8913	   0.7609	  10.6061	   8.1319	
  17.5000	  87.0000	  35.0000	   0.3804	   1.8913	   0.7609	   9.9261	   7.6407	
  20.0000	  87.0000	  35.0000	   0.4348	   1.8913	   0.7609	   9.2200	   7.0900	
 -20.0000	  87.0000	  37.5000	  -0.4348	   1.8913	   0.8152	  27.8047	  21.0192	
 -17.5000	  87.0000	  37.5000	  -0.3804	   1.8913	   0.8152	  25.8302	  20.1497	
 -15.0000	  87.0000	  37.5000	  -0.3261	   1.8913	   0.8152	  23.9684	  19.2356	
 -12.5000	  87.0000	  37.5000	  -0.2717	   1.8913	   0.8152	  22.1067	  18.3216	
 -10.0000	  87.0000	  37.5000	  -0.2174	   1.8913	   0.8152	  20.3287	  17.3444	
  -7.5000	  87.0000	  37.5000	  -0.1630	   1.8913	   0.8152	  18.8319	  16.1550	
  -5.0000	  87.0000	  37.5000	  -0.1087	   1.8913	   0.8152	  17.4187	  14.9025	
  -2.5000	  87.0000	  37.5000	  -0.0543	   1.8913	   0.8152	  16.0056	  13.6500	
   0.0000	  87.0000	  37.5000	   0.0000	   1.8913	   0.8152	  14.7257	  12.4860	
   2.5000	  87.0000	  37.5000	   0.0543	   1.8913	   0.8152	  13.9563	  11.6612	
   5.0000	  87.0000	  37.5000	   0.1087	   1.8913	   0.8152	  13.3200	  10.9250	
   7.5000	  87.0000	  37.5000	   0.1630	   1.8913	   0.8152	  12.6837	  10.1887	
  10.0000	  87.0000	  37.5000	   0.2174	   1.8913	   0.8152	  12.0398	   9.4921	
  12.5000	  87.0000	  37.5000	   0.2717	   1.8913	   0.8152	  11.3662	   8.9475	
  15.0000	  87.0000	  37.5000	   0.3261	   1.8913	   0.8152	  10.6850	   8.4425	
  17.5000	  87.0000	  37.5000	   0.3804	   1.8913	   0.8152	  10.0038	   7.9375	
  20.0000	  87.0000	  37.5000	   0.4348	   1.8913	   0.8152	   9.3225	   7.4325	
 -20.0000	  87.0000	  40.0000	  -0.4348	   1.8913	   0.8696	  26.2293	  19.9890	
 -17.5000	  87.0000	  40.0000	  -0.3804	   1.8913	   0.8696	  24.3197	  19.0731	
 -15.0000	  87.0000	  40.0000	  -0.3261	   1.8913	   0.8696	  22.5931	  18.1638	
 -12.5000	  87.0000	  40.0000	  -0.2717	   1.8913	   0.8696	  20.8666	  17.2544	
 -10.0000	  87.0000	  40.0000	  -0.2174	   1.8913	   0.8696	  19.2746	  16.3250	
  -7.5000	  87.0000	  40.0000	  -0.1630	   1.8913	   0.8696	  17.9737	  15.3525	
  -5.0000	  87.0000	  40.0000	  -0.1087	   1.8913	   0.8696	  16.8075	  14.3600	
  -2.5000	  87.0000	  40.0000	  -0.0543	   1.8913	   0.8696	  15.6412	  13.3675	
   0.0000	  87.0000	  40.0000	   0.0000	   1.8913	   0.8696	  14.6114	  12.4667	
   2.5000	  87.0000	  40.0000	   0.0543	   1.8913	   0.8696	  13.9225	  11.7950	
   5.0000	  87.0000	  40.0000	   0.1087	   1.8913	   0.8696	  13.3700	  11.2150	
   7.5000	  87.0000	  40.0000	   0.1630	   1.8913	   0.8696	  12.8175	  10.6350	
  10.0000	  87.0000	  40.0000	   0.2174	   1.8913	   0.8696	  12.2300	  10.0572	
  12.5000	  87.0000	  40.0000	   0.2717	   1.8913	   0.8696	  11.5550	   9.4850	
  15.0000	  87.0000	  40.0000	   0.3261	   1.8913	   0.8696	  10.8450	   8.9150	
  17.5000	  87.0000	  40.0000	   0.3804	   1.8913	   0.8696	  10.1350	   8.3450	
  20.0000	  87.0000	  40.0000	   0.4348	   1.8913	   0.8696	   9.4250	   7.7750	
 -20.0000	  87.0000	  42.5000	  -0.4348	   1.8913	   0.9239	  24.6540	  18.9588	
 -17.5000	  87.0000	  42.5000	  -0.3804	   1.8913	   0.9239	  22.8092	  17.9966	
 -15.0000	  87.0000	  42.5000	  -0.3261	   1.8913	   0.9239	  21.2178	  17.0919	
 -12.5000	  87.0000	  42.5000	  -0.2717	   1.8913	   0.9239	  19.6264	  16.1872	
 -10.0000	  87.0000	  42.5000	  -0.2174	   1.8913	   0.9239	  18.1603	  15.3146	
  -7.5000	  87.0000	  42.5000	  -0.1630	   1.8913	   0.9239	  17.1156	  14.5500	
  -5.0000	  87.0000	  42.5000	  -0.1087	   1.8913	   0.9239	  16.1962	  13.8175	
  -2.5000	  87.0000	  42.5000	  -0.0543	   1.8913	   0.9239	  15.2769	  13.0850	
   0.0000	  87.0000	  42.5000	   0.0000	   1.8913	   0.9239	  14.4347	  12.4054	
   2.5000	  87.0000	  42.5000	   0.0543	   1.8913	   0.9239	  13.8887	  11.9287	
   5.0000	  87.0000	  42.5000	   0.1087	   1.8913	   0.9239	  13.4200	  11.5050	
   7.5000	  87.0000	  42.5000	   0.1630	   1.8913	   0.9239	  12.9512	  11.0813	
  10.0000	  87.0000	  42.5000	   0.2174	   1.8913	   0.9239	  12.4362	  10.6213	
  12.5000	  87.0000	  42.5000	   0.2717	   1.8913	   0.9239	  11.7437	  10.0225	
  15.0000	  87.0000	  42.5000	   0.3261	   1.8913	   0.9239	  11.0050	   9.3875	
  17.5000	  87.0000	  42.5000	   0.3804	   1.8913	   0.9239	  10.2663	   8.7525	
  20.0000	  87.0000	  42.5000	   0.4348	   1.8913	   0.9239	   9.5275	   8.1175	
 -20.0000	  87.0000	  45.0000	  -0.4348	   1.8913	   0.9783	  23.0786	  17.9286	
 -17.5000	  87.0000	  45.0000	  -0.3804	   1.8913	   0.9783	  21.2197	  16.8941	
 -15.0000	  87.0000	  45.0000	  -0.3261	   1.8913	   0.9783	  19.5981	  15.9636	
 -12.5000	  87.0000	  45.0000	  -0.2717	   1.8913	   0.9783	  18.2120	  15.1067	
 -10.0000	  87.0000	  45.0000	  -0.2174	   1.8913	   0.9783	  16.9300	  14.2200	
  -7.5000	  87.0000	  45.0000	  -0.1630	   1.8913	   0.9783	  16.0939	  13.7630	
  -5.0000	  87.0000	  45.0000	  -0.1087	   1.8913	   0.9783	  15.3736	  13.2714	
  -2.5000	  87.0000	  45.0000	  -0.0543	   1.8913	   0.9783	  14.7500	  12.7814	
   0.0000	  87.0000	  45.0000	   0.0000	   1.8913	   0.9783	  14.2400	  12.3300	
   2.5000	  87.0000	  45.0000	   0.0543	   1.8913	   0.9783	  13.6759	  11.9873	
   5.0000	  87.0000	  45.0000	   0.1087	   1.8913	   0.9783	  13.2156	  11.6511	
   7.5000	  87.0000	  45.0000	   0.1630	   1.8913	   0.9783	  12.8716	  11.3807	
  10.0000	  87.0000	  45.0000	   0.2174	   1.8913	   0.9783	  12.7000	  11.2600	
  12.5000	  87.0000	  45.0000	   0.2717	   1.8913	   0.9783	  11.7306	  10.4054	
  15.0000	  87.0000	  45.0000	   0.3261	   1.8913	   0.9783	  10.9406	   9.6958	
  17.5000	  87.0000	  45.0000	   0.3804	   1.8913	   0.9783	  10.2531	   9.0613	
  20.0000	  87.0000	  45.0000	   0.4348	   1.8913	   0.9783	   9.6300	   8.4600	
 -20.0000	  87.0000	  47.5000	  -0.4348	   1.8913	   1.0326	  18.7179	  15.8046	
 -17.5000	  87.0000	  47.5000	  -0.3804	   1.8913	   1.0326	  17.6402	  15.1386	
 -15.0000	  87.0000	  47.5000	  -0.3261	   1.8913	   1.0326	  16.7159	  14.5441	
 -12.5000	  87.0000	  47.5000	  -0.2717	   1.8913	   1.0326	  15.7917	  13.9495	
 -10.0000	  87.0000	  47.5000	  -0.2174	   1.8913	   1.0326	  14.9611	  13.4063	
  -7.5000	  87.0000	  47.5000	  -0.1630	   1.8913	   1.0326	  14.4450	  13.0356	
  -5.0000	  87.0000	  47.5000	  -0.1087	   1.8913	   1.0326	  14.0225	  12.7163	
  -2.5000	  87.0000	  47.5000	  -0.0543	   1.8913	   1.0326	  13.6000	  12.3969	
   0.0000	  87.0000	  47.5000	   0.0000	   1.8913	   1.0326	  13.1811	  12.0774	
   2.5000	  87.0000	  47.5000	   0.0543	   1.8913	   1.0326	  12.7762	  11.7575	
   5.0000	  87.0000	  47.5000	   0.1087	   1.8913	   1.0326	  12.3750	  11.4375	
   7.5000	  87.0000	  47.5000	   0.1630	   1.8913	   1.0326	  11.9737	  11.1175	
  10.0000	  87.0000	  47.5000	   0.2174	   1.8913	   1.0326	  11.5335	  10.7492	
  12.5000	  87.0000	  47.5000	   0.2717	   1.8913	   1.0326	  10.9437	  10.1956	
  15.0000	  87.0000	  47.5000	   0.3261	   1.8913	   1.0326	  10.3150	   9.5938	
  17.5000	  87.0000	  47.5000	   0.3804	   1.8913	   1.0326	   9.6862	   8.9919	
  20.0000	  87.0000	  47.5000	   0.4348	   1.8913	   1.0326	   9.0575	   8.3900	
 -20.0000	  87.0000	  50.0000	  -0.4348	   1.8913	   1.0870	  14.3571	  13.6806	
 -17.5000	  87.0000	  50.0000	  -0.3804	   1.8913	   1.0870	  13.9816	  13.3572	
 -15.0000	  87.0000	  50.0000	  -0.3261	   1.8913	   1.0870	  13.5894	  13.0681	
 -12.5000	  87.0000	  50.0000	  -0.2717	   1.8913	   1.0870	  13.1972	  12.7791	
 -10.0000	  87.0000	  50.0000	  -0.2174	   1.8913	   1.0870	  12.8578	  12.5195	
  -7.5000	  87.0000	  50.0000	  -0.1630	   1.8913	   1.0870	  12.6325	  12.3237	
  -5.0000	  87.0000	  50.0000	  -0.1087	   1.8913	   1.0870	  12.4600	  12.1575	
  -2.5000	  87.0000	  50.0000	  -0.0543	   1.8913	   1.0870	  12.2875	  11.9913	
   0.0000	  87.0000	  50.0000	   0.0000	   1.8913	   1.0870	  12.0606	  11.7792	
   2.5000	  87.0000	  50.0000	   0.0543	   1.8913	   1.0870	  11.6975	  11.4525	
   5.0000	  87.0000	  50.0000	   0.1087	   1.8913	   1.0870	  11.2800	  11.0800	
   7.5000	  87.0000	  50.0000	   0.1630	   1.8913	   1.0870	  10.8625	  10.7075	
  10.0000	  87.0000	  50.0000	   0.2174	   1.8913	   1.0870	  10.4289	  10.3058	
  12.5000	  87.0000	  50.0000	   0.2717	   1.8913	   1.0870	   9.9550	   9.8312	
  15.0000	  87.0000	  50.0000	   0.3261	   1.8913	   1.0870	   9.4650	   9.3275	
  17.5000	  87.0000	  50.0000	   0.3804	   1.8913	   1.0870	   8.9750	   8.8238	
  20.0000	  87.0000	  50.0000	   0.4348	   1.8913	   1.0870	   8.4850	   8.3200	
 -20.0000	  87.0000	  52.5000	  -0.4348	   1.8913	   1.1413	   9.9963	  11.5566	
 -17.5000	  87.0000	  52.5000	  -0.3804	   1.8913	   1.1413	  10.3230	  11.5758	
 -15.0000	  87.0000	  52.5000	  -0.3261	   1.8913	   1.1413	  10.4628	  11.5922	
 -12.5000	  87.0000	  52.5000	  -0.2717	   1.8913	   1.1413	  10.6027	  11.6086	
 -10.0000	  87.0000	  52.5000	  -0.2174	   1.8913	   1.1413	  10.7309	  11.6195	
  -7.5000	  87.0000	  52.5000	  -0.1630	   1.8913	   1.1413	  10.8200	  11.6119	
  -5.0000	  87.0000	  52.5000	  -0.1087	   1.8913	   1.1413	  10.8975	  11.5988	
  -2.5000	  87.0000	  52.5000	  -0.0543	   1.8913	   1.1413	  10.9750	  11.5856	
   0.0000	  87.0000	  52.5000	   0.0000	   1.8913	   1.1413	  10.9649	  11.5019	
   2.5000	  87.0000	  52.5000	   0.0543	   1.8913	   1.1413	  10.6187	  11.1475	
   5.0000	  87.0000	  52.5000	   0.1087	   1.8913	   1.1413	  10.1850	  10.7225	
   7.5000	  87.0000	  52.5000	   0.1630	   1.8913	   1.1413	   9.7512	  10.2975	
  10.0000	  87.0000	  52.5000	   0.2174	   1.8913	   1.1413	   9.3316	   9.8758	
  12.5000	  87.0000	  52.5000	   0.2717	   1.8913	   1.1413	   8.9662	   9.4669	
  15.0000	  87.0000	  52.5000	   0.3261	   1.8913	   1.1413	   8.6150	   9.0612	
  17.5000	  87.0000	  52.5000	   0.3804	   1.8913	   1.1413	   8.2637	   8.6556	
  20.0000	  87.0000	  52.5000	   0.4348	   1.8913	   1.1413	   7.9125	   8.2500	
 -20.0000	  87.0000	  55.0000	  -0.4348	   1.8913	   1.1957	   5.6356	   9.4326	
 -17.5000	  87.0000	  55.0000	  -0.3804	   1.8913	   1.1957	   6.7511	   9.8038	
 -15.0000	  87.0000	  55.0000	  -0.3261	   1.8913	   1.1957	   7.5827	  10.1313	
 -12.5000	  87.0000	  55.0000	  -0.2717	   1.8913	   1.1957	   8.1597	  10.4330	
 -10.0000	  87.0000	  55.0000	  -0.2174	   1.8913	   1.1957	   8.6800	  10.7600	
  -7.5000	  87.0000	  55.0000	  -0.1630	   1.8913	   1.1957	   9.0602	  10.8368	
  -5.0000	  87.0000	  55.0000	  -0.1087	   1.8913	   1.1957	   9.3406	  10.9178	
  -2.5000	  87.0000	  55.0000	  -0.0543	   1.8913	   1.1957	   9.6184	  11.0546	
   0.0000	  87.0000	  55.0000	   0.0000	   1.8913	   1.1957	   9.9900	  11.3200	
   2.5000	  87.0000	  55.0000	   0.0543	   1.8913	   1.1957	   9.4809	  10.7196	
   5.0000	  87.0000	  55.0000	   0.1087	   1.8913	   1.1957	   9.0567	  10.2492	
   7.5000	  87.0000	  55.0000	   0.1630	   1.8913	   1.1957	   8.6477	   9.8317	
  10.0000	  87.0000	  55.0000	   0.2174	   1.8913	   1.1957	   8.1900	   9.4100	
  12.5000	  87.0000	  55.0000	   0.2717	   1.8913	   1.1957	   8.0063	   9.0724	
  15.0000	  87.0000	  55.0000	   0.3261	   1.8913	   1.1957	   7.7864	   8.7458	
  17.5000	  87.0000	  55.0000	   0.3804	   1.8913	   1.1957	   7.5567	   8.4417	
  20.0000	  87.0000	  55.0000	   0.4348	   1.8913	   1.1957	   7.3400	   8.1800	
 -20.0000	  87.0000	  57.5000	  -0.4348	   1.8913	   1.2500	   4.4770	   7.7597	
 -17.5000	  87.0000	  57.5000	  -0.3804	   1.8913	   1.2500	   5.3606	   8.2684	
 -15.0000	  87.0000	  57.5000	  -0.3261	   1.8913	   1.2500	   5.9763	   8.7481	
 -12.5000	  87.0000	  57.5000	  -0.2717	   1.8913	   1.2500	   6.5919	   9.2278	
 -10.0000	  87.0000	  57.5000	  -0.2174	   1.8913	   1.2500	   7.1477	   9.6389	
  -7.5000	  87.0000	  57.5000	  -0.1630	   1.8913	   1.2500	   7.5025	   9.8194	
  -5.0000	  87.0000	  57.5000	  -0.1087	   1.8913	   1.2500	   7.7975	   9.9313	