Variables = "x [mm]"	"y [mm]"	"z [mm]"	"x/B"	"y/B"	"z/B"	"C*"	"C*std"	
Zone T = "West_y=-31mm_Tec" I=17 J=25 F=POINT
 -20.0000	 -31.0000	   5.0000	  -0.4348	  -0.6739	   0.1087	  63.2000	  31.9100	
 -17.5000	 -31.0000	   5.0000	  -0.3804	  -0.6739	   0.1087	  68.6975	  41.4175	
 -15.0000	 -31.0000	   5.0000	  -0.3261	  -0.6739	   0.1087	  74.1950	  50.9250	
 -12.5000	 -31.0000	   5.0000	  -0.2717	  -0.6739	   0.1087	  79.6925	  60.4325	
 -10.0000	 -31.0000	   5.0000	  -0.2174	  -0.6739	   0.1087	  85.1900	  69.9400	
  -7.5000	 -31.0000	   5.0000	  -0.1630	  -0.6739	   0.1087	  82.3375	  79.5175	
  -5.0000	 -31.0000	   5.0000	  -0.1087	  -0.6739	   0.1087	  79.4850	  89.0950	
  -2.5000	 -31.0000	   5.0000	  -0.0543	  -0.6739	   0.1087	  76.6325	  98.6725	
   0.0000	 -31.0000	   5.0000	   0.0000	  -0.6739	   0.1087	  73.7800	 108.2500	
   2.5000	 -31.0000	   5.0000	   0.0543	  -0.6739	   0.1087	  60.4250	  93.8950	
   5.0000	 -31.0000	   5.0000	   0.1087	  -0.6739	   0.1087	  47.0700	  79.5400	
   7.5000	 -31.0000	   5.0000	   0.1630	  -0.6739	   0.1087	  33.7150	  65.1850	
  10.0000	 -31.0000	   5.0000	   0.2174	  -0.6739	   0.1087	  20.3600	  50.8300	
  12.5000	 -31.0000	   5.0000	   0.2717	  -0.6739	   0.1087	  18.0650	  44.5800	
  15.0000	 -31.0000	   5.0000	   0.3261	  -0.6739	   0.1087	  15.7700	  38.3300	
  17.5000	 -31.0000	   5.0000	   0.3804	  -0.6739	   0.1087	  13.4750	  32.0800	
  20.0000	 -31.0000	   5.0000	   0.4348	  -0.6739	   0.1087	  11.1800	  25.8300	
 -20.0000	 -31.0000	   7.5000	  -0.4348	  -0.6739	   0.1630	  58.2025	  31.6650	
 -17.5000	 -31.0000	   7.5000	  -0.3804	  -0.6739	   0.1630	  61.6325	  39.3444	
 -15.0000	 -31.0000	   7.5000	  -0.3261	  -0.6739	   0.1630	  65.0625	  47.0237	
 -12.5000	 -31.0000	   7.5000	  -0.2717	  -0.6739	   0.1630	  68.4925	  54.7031	
 -10.0000	 -31.0000	   7.5000	  -0.2174	  -0.6739	   0.1630	  70.7925	  62.1739	
  -7.5000	 -31.0000	   7.5000	  -0.1630	  -0.6739	   0.1630	  68.7606	  68.8450	
  -5.0000	 -31.0000	   7.5000	  -0.1087	  -0.6739	   0.1630	  65.5988	  75.3075	
  -2.5000	 -31.0000	   7.5000	  -0.0543	  -0.6739	   0.1630	  62.4369	  81.7700	
   0.0000	 -31.0000	   7.5000	   0.0000	  -0.6739	   0.1630	  58.0321	  85.1672	
   2.5000	 -31.0000	   7.5000	   0.0543	  -0.6739	   0.1630	  48.8631	  76.8144	
   5.0000	 -31.0000	   7.5000	   0.1087	  -0.6739	   0.1630	  38.4513	  65.3963	
   7.5000	 -31.0000	   7.5000	   0.1630	  -0.6739	   0.1630	  28.0394	  53.9781	
  10.0000	 -31.0000	   7.5000	   0.2174	  -0.6739	   0.1630	  19.1124	  43.7007	
  12.5000	 -31.0000	   7.5000	   0.2717	  -0.6739	   0.1630	  15.8775	  37.7962	
  15.0000	 -31.0000	   7.5000	   0.3261	  -0.6739	   0.1630	  14.1275	  33.0325	
  17.5000	 -31.0000	   7.5000	   0.3804	  -0.6739	   0.1630	  12.3775	  28.2687	
  20.0000	 -31.0000	   7.5000	   0.4348	  -0.6739	   0.1630	  10.6275	  23.5050	
 -20.0000	 -31.0000	  10.0000	  -0.4348	  -0.6739	   0.2174	  53.2050	  31.4200	
 -17.5000	 -31.0000	  10.0000	  -0.3804	  -0.6739	   0.2174	  54.5675	  37.2713	
 -15.0000	 -31.0000	  10.0000	  -0.3261	  -0.6739	   0.2174	  55.9300	  43.1225	
 -12.5000	 -31.0000	  10.0000	  -0.2717	  -0.6739	   0.2174	  57.2925	  48.9737	
 -10.0000	 -31.0000	  10.0000	  -0.2174	  -0.6739	   0.2174	  57.5808	  54.2686	
  -7.5000	 -31.0000	  10.0000	  -0.1630	  -0.6739	   0.2174	  55.1838	  58.1725	
  -5.0000	 -31.0000	  10.0000	  -0.1087	  -0.6739	   0.2174	  51.7125	  61.5200	
  -2.5000	 -31.0000	  10.0000	  -0.0543	  -0.6739	   0.2174	  48.2412	  64.8675	
   0.0000	 -31.0000	  10.0000	   0.0000	  -0.6739	   0.2174	  43.8817	  65.5864	
   2.5000	 -31.0000	  10.0000	   0.0543	  -0.6739	   0.2174	  37.3012	  59.7338	
   5.0000	 -31.0000	  10.0000	   0.1087	  -0.6739	   0.2174	  29.8325	  51.2525	
   7.5000	 -31.0000	  10.0000	   0.1630	  -0.6739	   0.2174	  22.3637	  42.7712	
  10.0000	 -31.0000	  10.0000	   0.2174	  -0.6739	   0.2174	  16.2869	  35.4464	
  12.5000	 -31.0000	  10.0000	   0.2717	  -0.6739	   0.2174	  13.6900	  31.0125	
  15.0000	 -31.0000	  10.0000	   0.3261	  -0.6739	   0.2174	  12.4850	  27.7350	
  17.5000	 -31.0000	  10.0000	   0.3804	  -0.6739	   0.2174	  11.2800	  24.4575	
  20.0000	 -31.0000	  10.0000	   0.4348	  -0.6739	   0.2174	  10.0750	  21.1800	
 -20.0000	 -31.0000	  12.5000	  -0.4348	  -0.6739	   0.2717	  48.2075	  31.1750	
 -17.5000	 -31.0000	  12.5000	  -0.3804	  -0.6739	   0.2717	  47.5025	  35.1981	
 -15.0000	 -31.0000	  12.5000	  -0.3261	  -0.6739	   0.2717	  46.7975	  39.2213	
 -12.5000	 -31.0000	  12.5000	  -0.2717	  -0.6739	   0.2717	  46.0925	  43.2444	
 -10.0000	 -31.0000	  12.5000	  -0.2174	  -0.6739	   0.2717	  44.8603	  46.6177	
  -7.5000	 -31.0000	  12.5000	  -0.1630	  -0.6739	   0.2717	  41.6069	  47.5000	
  -5.0000	 -31.0000	  12.5000	  -0.1087	  -0.6739	   0.2717	  37.8262	  47.7325	
  -2.5000	 -31.0000	  12.5000	  -0.0543	  -0.6739	   0.2717	  34.0456	  47.9650	
   0.0000	 -31.0000	  12.5000	   0.0000	  -0.6739	   0.2717	  30.1373	  47.2072	
   2.5000	 -31.0000	  12.5000	   0.0543	  -0.6739	   0.2717	  25.7394	  42.6531	
   5.0000	 -31.0000	  12.5000	   0.1087	  -0.6739	   0.2717	  21.2137	  37.1088	
   7.5000	 -31.0000	  12.5000	   0.1630	  -0.6739	   0.2717	  16.6881	  31.5644	
  10.0000	 -31.0000	  12.5000	   0.2174	  -0.6739	   0.2717	  12.8252	  26.6634	
  12.5000	 -31.0000	  12.5000	   0.2717	  -0.6739	   0.2717	  11.5025	  24.2288	
  15.0000	 -31.0000	  12.5000	   0.3261	  -0.6739	   0.2717	  10.8425	  22.4375	
  17.5000	 -31.0000	  12.5000	   0.3804	  -0.6739	   0.2717	  10.1825	  20.6462	
  20.0000	 -31.0000	  12.5000	   0.4348	  -0.6739	   0.2717	   9.5225	  18.8550	
 -20.0000	 -31.0000	  15.0000	  -0.4348	  -0.6739	   0.3261	  43.2100	  30.9300	
 -17.5000	 -31.0000	  15.0000	  -0.3804	  -0.6739	   0.3261	  41.2320	  33.2236	
 -15.0000	 -31.0000	  15.0000	  -0.3261	  -0.6739	   0.3261	  39.1292	  35.6872	
 -12.5000	 -31.0000	  15.0000	  -0.2717	  -0.6739	   0.3261	  36.3570	  37.9830	
 -10.0000	 -31.0000	  15.0000	  -0.2174	  -0.6739	   0.3261	  32.1200	  39.7100	
  -7.5000	 -31.0000	  15.0000	  -0.1630	  -0.6739	   0.3261	  29.9833	  38.0762	
  -5.0000	 -31.0000	  15.0000	  -0.1087	  -0.6739	   0.3261	  26.6714	  36.3364	
  -2.5000	 -31.0000	  15.0000	  -0.0543	  -0.6739	   0.3261	  22.1108	  33.5033	
   0.0000	 -31.0000	  15.0000	   0.0000	  -0.6739	   0.3261	  15.7600	  28.1800	
   2.5000	 -31.0000	  15.0000	   0.0543	  -0.6739	   0.3261	  16.1112	  28.1584	
   5.0000	 -31.0000	  15.0000	   0.1087	  -0.6739	   0.3261	  14.4783	  25.7325	
   7.5000	 -31.0000	  15.0000	   0.1630	  -0.6739	   0.3261	  11.9845	  22.0415	
  10.0000	 -31.0000	  15.0000	   0.2174	  -0.6739	   0.3261	   9.4300	  17.7500	
  12.5000	 -31.0000	  15.0000	   0.2717	  -0.6739	   0.3261	   9.6939	  18.3894	
  15.0000	 -31.0000	  15.0000	   0.3261	  -0.6739	   0.3261	   9.5456	  17.9900	
  17.5000	 -31.0000	  15.0000	   0.3804	  -0.6739	   0.3261	   9.2393	  17.2021	
  20.0000	 -31.0000	  15.0000	   0.4348	  -0.6739	   0.3261	   8.9700	  16.5300	
 -20.0000	 -31.0000	  17.5000	  -0.4348	  -0.6739	   0.3804	  40.8925	  30.1825	
 -17.5000	 -31.0000	  17.5000	  -0.3804	  -0.6739	   0.3804	  38.0069	  31.6269	
 -15.0000	 -31.0000	  17.5000	  -0.3261	  -0.6739	   0.3804	  35.1212	  33.0712	
 -12.5000	 -31.0000	  17.5000	  -0.2717	  -0.6739	   0.3804	  32.2356	  34.5156	
 -10.0000	 -31.0000	  17.5000	  -0.2174	  -0.6739	   0.3804	  29.2442	  35.2803	
  -7.5000	 -31.0000	  17.5000	  -0.1630	  -0.6739	   0.3804	  25.8475	  33.4394	
  -5.0000	 -31.0000	  17.5000	  -0.1087	  -0.6739	   0.3804	  22.3450	  30.9187	
  -2.5000	 -31.0000	  17.5000	  -0.0543	  -0.6739	   0.3804	  18.8425	  28.3981	
   0.0000	 -31.0000	  17.5000	   0.0000	  -0.6739	   0.3804	  15.6928	  25.9151	
   2.5000	 -31.0000	  17.5000	   0.0543	  -0.6739	   0.3804	  13.8956	  23.5762	
   5.0000	 -31.0000	  17.5000	   0.1087	  -0.6739	   0.3804	  12.4512	  21.2750	
   7.5000	 -31.0000	  17.5000	   0.1630	  -0.6739	   0.3804	  11.0069	  18.9737	
  10.0000	 -31.0000	  17.5000	   0.2174	  -0.6739	   0.3804	   9.7715	  16.9809	
  12.5000	 -31.0000	  17.5000	   0.2717	  -0.6739	   0.3804	   9.3375	  16.1700	
  15.0000	 -31.0000	  17.5000	   0.3261	  -0.6739	   0.3804	   9.1125	  15.6675	
  17.5000	 -31.0000	  17.5000	   0.3804	  -0.6739	   0.3804	   8.8875	  15.1650	
  20.0000	 -31.0000	  17.5000	   0.4348	  -0.6739	   0.3804	   8.6625	  14.6625	
 -20.0000	 -31.0000	  20.0000	  -0.4348	  -0.6739	   0.4348	  38.5750	  29.4350	
 -17.5000	 -31.0000	  20.0000	  -0.3804	  -0.6739	   0.4348	  35.5763	  30.1288	
 -15.0000	 -31.0000	  20.0000	  -0.3261	  -0.6739	   0.4348	  32.5775	  30.8225	
 -12.5000	 -31.0000	  20.0000	  -0.2717	  -0.6739	   0.4348	  29.5787	  31.5162	
 -10.0000	 -31.0000	  20.0000	  -0.2174	  -0.6739	   0.4348	  26.5986	  31.5761	
  -7.5000	 -31.0000	  20.0000	  -0.1630	  -0.6739	   0.4348	  23.6650	  30.0512	
  -5.0000	 -31.0000	  20.0000	  -0.1087	  -0.6739	   0.4348	  20.7500	  27.8925	
  -2.5000	 -31.0000	  20.0000	  -0.0543	  -0.6739	   0.4348	  17.8350	  25.7337	
   0.0000	 -31.0000	  20.0000	   0.0000	  -0.6739	   0.4348	  15.2775	  23.6114	
   2.5000	 -31.0000	  20.0000	   0.0543	  -0.6739	   0.4348	  13.6138	  21.5800	
   5.0000	 -31.0000	  20.0000	   0.1087	  -0.6739	   0.4348	  12.3075	  19.5850	
   7.5000	 -31.0000	  20.0000	   0.1630	  -0.6739	   0.4348	  11.0012	  17.5900	
  10.0000	 -31.0000	  20.0000	   0.2174	  -0.6739	   0.4348	   9.9108	  15.8828	
  12.5000	 -31.0000	  20.0000	   0.2717	  -0.6739	   0.4348	   9.3600	  14.8950	
  15.0000	 -31.0000	  20.0000	   0.3261	  -0.6739	   0.4348	   9.0250	  14.1950	
  17.5000	 -31.0000	  20.0000	   0.3804	  -0.6739	   0.4348	   8.6900	  13.4950	
  20.0000	 -31.0000	  20.0000	   0.4348	  -0.6739	   0.4348	   8.3550	  12.7950	
 -20.0000	 -31.0000	  22.5000	  -0.4348	  -0.6739	   0.4891	  36.2575	  28.6875	
 -17.5000	 -31.0000	  22.5000	  -0.3804	  -0.6739	   0.4891	  33.1456	  28.6306	
 -15.0000	 -31.0000	  22.5000	  -0.3261	  -0.6739	   0.4891	  30.0337	  28.5738	
 -12.5000	 -31.0000	  22.5000	  -0.2717	  -0.6739	   0.4891	  26.9219	  28.5169	
 -10.0000	 -31.0000	  22.5000	  -0.2174	  -0.6739	   0.4891	  23.9445	  28.1617	
  -7.5000	 -31.0000	  22.5000	  -0.1630	  -0.6739	   0.4891	  21.4825	  26.6631	
  -5.0000	 -31.0000	  22.5000	  -0.1087	  -0.6739	   0.4891	  19.1550	  24.8663	
  -2.5000	 -31.0000	  22.5000	  -0.0543	  -0.6739	   0.4891	  16.8275	  23.0694	
   0.0000	 -31.0000	  22.5000	   0.0000	  -0.6739	   0.4891	  14.6988	  21.2910	
   2.5000	 -31.0000	  22.5000	   0.0543	  -0.6739	   0.4891	  13.3319	  19.5837	
   5.0000	 -31.0000	  22.5000	   0.1087	  -0.6739	   0.4891	  12.1638	  17.8950	
   7.5000	 -31.0000	  22.5000	   0.1630	  -0.6739	   0.4891	  10.9956	  16.2063	
  10.0000	 -31.0000	  22.5000	   0.2174	  -0.6739	   0.4891	   9.9515	  14.6531	
  12.5000	 -31.0000	  22.5000	   0.2717	  -0.6739	   0.4891	   9.3825	  13.6200	
  15.0000	 -31.0000	  22.5000	   0.3261	  -0.6739	   0.4891	   8.9375	  12.7225	
  17.5000	 -31.0000	  22.5000	   0.3804	  -0.6739	   0.4891	   8.4925	  11.8250	
  20.0000	 -31.0000	  22.5000	   0.4348	  -0.6739	   0.4891	   8.0475	  10.9275	
 -20.0000	 -31.0000	  25.0000	  -0.4348	  -0.6739	   0.5435	  33.9400	  27.9400	
 -17.5000	 -31.0000	  25.0000	  -0.3804	  -0.6739	   0.5435	  30.9332	  27.1229	
 -15.0000	 -31.0000	  25.0000	  -0.3261	  -0.6739	   0.5435	  27.8286	  26.4894	
 -12.5000	 -31.0000	  25.0000	  -0.2717	  -0.6739	   0.5435	  24.5692	  25.7809	
 -10.0000	 -31.0000	  25.0000	  -0.2174	  -0.6739	   0.5435	  21.0400	  24.7100	
  -7.5000	 -31.0000	  25.0000	  -0.1630	  -0.6739	   0.5435	  19.5736	  23.6344	
  -5.0000	 -31.0000	  25.0000	  -0.1087	  -0.6739	   0.5435	  17.8194	  22.2533	
  -2.5000	 -31.0000	  25.0000	  -0.0543	  -0.6739	   0.5435	  15.9466	  20.6834	
   0.0000	 -31.0000	  25.0000	   0.0000	  -0.6739	   0.5435	  14.0800	  18.9700	
   2.5000	 -31.0000	  25.0000	   0.0543	  -0.6739	   0.5435	  13.0786	  17.7739	
   5.0000	 -31.0000	  25.0000	   0.1087	  -0.6739	   0.5435	  12.0253	  16.3800	
   7.5000	 -31.0000	  25.0000	   0.1630	  -0.6739	   0.5435	  10.9695	  14.9061	
  10.0000	 -31.0000	  25.0000	   0.2174	  -0.6739	   0.5435	   9.9600	  13.4400	
  12.5000	 -31.0000	  25.0000	   0.2717	  -0.6739	   0.5435	   9.3839	  12.4221	
  15.0000	 -31.0000	  25.0000	   0.3261	  -0.6739	   0.5435	   8.8536	  11.4083	
  17.5000	 -31.0000	  25.0000	   0.3804	  -0.6739	   0.5435	   8.3217	  10.3221	
  20.0000	 -31.0000	  25.0000	   0.4348	  -0.6739	   0.5435	   7.7400	   9.0600	
 -20.0000	 -31.0000	  27.5000	  -0.4348	  -0.6739	   0.5978	  32.6450	  26.3400	
 -17.5000	 -31.0000	  27.5000	  -0.3804	  -0.6739	   0.5978	  29.5575	  25.5781	
 -15.0000	 -31.0000	  27.5000	  -0.3261	  -0.6739	   0.5978	  26.4700	  24.8163	
 -12.5000	 -31.0000	  27.5000	  -0.2717	  -0.6739	   0.5978	  23.3825	  24.0544	
 -10.0000	 -31.0000	  27.5000	  -0.2174	  -0.6739	   0.5978	  20.5532	  23.1986	
  -7.5000	 -31.0000	  27.5000	  -0.1630	  -0.6739	   0.5978	  18.7137	  21.9831	
  -5.0000	 -31.0000	  27.5000	  -0.1087	  -0.6739	   0.5978	  17.1325	  20.6738	
  -2.5000	 -31.0000	  27.5000	  -0.0543	  -0.6739	   0.5978	  15.5512	  19.3644	
   0.0000	 -31.0000	  27.5000	   0.0000	  -0.6739	   0.5978	  14.0636	  18.0435	
   2.5000	 -31.0000	  27.5000	   0.0543	  -0.6739	   0.5978	  12.9350	  16.6788	
   5.0000	 -31.0000	  27.5000	   0.1087	  -0.6739	   0.5978	  11.9000	  15.3025	
   7.5000	 -31.0000	  27.5000	   0.1630	  -0.6739	   0.5978	  10.8650	  13.9262	
  10.0000	 -31.0000	  27.5000	   0.2174	  -0.6739	   0.5978	   9.9173	  12.6094	
  12.5000	 -31.0000	  27.5000	   0.2717	  -0.6739	   0.5978	   9.3044	  11.5200	
  15.0000	 -31.0000	  27.5000	   0.3261	  -0.6739	   0.5978	   8.7788	  10.4900	
  17.5000	 -31.0000	  27.5000	   0.3804	  -0.6739	   0.5978	   8.2531	   9.4600	
  20.0000	 -31.0000	  27.5000	   0.4348	  -0.6739	   0.5978	   7.7275	   8.4300	
 -20.0000	 -31.0000	  30.0000	  -0.4348	  -0.6739	   0.6522	  31.3500	  24.7400	
 -17.5000	 -31.0000	  30.0000	  -0.3804	  -0.6739	   0.6522	  28.4000	  24.0237	
 -15.0000	 -31.0000	  30.0000	  -0.3261	  -0.6739	   0.6522	  25.4500	  23.3075	
 -12.5000	 -31.0000	  30.0000	  -0.2717	  -0.6739	   0.6522	  22.5000	  22.5913	
 -10.0000	 -31.0000	  30.0000	  -0.2174	  -0.6739	   0.6522	  19.8894	  21.7711	
  -7.5000	 -31.0000	  30.0000	  -0.1630	  -0.6739	   0.6522	  18.1275	  20.6913	
  -5.0000	 -31.0000	  30.0000	  -0.1087	  -0.6739	   0.6522	  16.7050	  19.5075	
  -2.5000	 -31.0000	  30.0000	  -0.0543	  -0.6739	   0.6522	  15.2825	  18.3237	
   0.0000	 -31.0000	  30.0000	   0.0000	  -0.6739	   0.6522	  13.9450	  17.0986	
   2.5000	 -31.0000	  30.0000	   0.0543	  -0.6739	   0.6522	  12.8200	  15.7700	
   5.0000	 -31.0000	  30.0000	   0.1087	  -0.6739	   0.6522	  11.7800	  14.4000	
   7.5000	 -31.0000	  30.0000	   0.1630	  -0.6739	   0.6522	  10.7400	  13.0300	
  10.0000	 -31.0000	  30.0000	   0.2174	  -0.6739	   0.6522	   9.8208	  11.7500	
  12.5000	 -31.0000	  30.0000	   0.2717	  -0.6739	   0.6522	   9.2037	  10.6950	
  15.0000	 -31.0000	  30.0000	   0.3261	  -0.6739	   0.6522	   8.7075	   9.7300	
  17.5000	 -31.0000	  30.0000	   0.3804	  -0.6739	   0.6522	   8.2112	   8.7650	
  20.0000	 -31.0000	  30.0000	   0.4348	  -0.6739	   0.6522	   7.7150	   7.8000	
 -20.0000	 -31.0000	  32.5000	  -0.4348	  -0.6739	   0.7065	  30.0550	  23.1400	
 -17.5000	 -31.0000	  32.5000	  -0.3804	  -0.6739	   0.7065	  27.2425	  22.4694	
 -15.0000	 -31.0000	  32.5000	  -0.3261	  -0.6739	   0.7065	  24.4300	  21.7987	
 -12.5000	 -31.0000	  32.5000	  -0.2717	  -0.6739	   0.7065	  21.6175	  21.1281	
 -10.0000	 -31.0000	  32.5000	  -0.2174	  -0.6739	   0.7065	  19.0705	  20.3911	
  -7.5000	 -31.0000	  32.5000	  -0.1630	  -0.6739	   0.7065	  17.5412	  19.3994	
  -5.0000	 -31.0000	  32.5000	  -0.1087	  -0.6739	   0.7065	  16.2775	  18.3412	
  -2.5000	 -31.0000	  32.5000	  -0.0543	  -0.6739	   0.7065	  15.0137	  17.2831	
   0.0000	 -31.0000	  32.5000	   0.0000	  -0.6739	   0.7065	  13.7875	  16.1726	
   2.5000	 -31.0000	  32.5000	   0.0543	  -0.6739	   0.7065	  12.7050	  14.8612	
   5.0000	 -31.0000	  32.5000	   0.1087	  -0.6739	   0.7065	  11.6600	  13.4975	
   7.5000	 -31.0000	  32.5000	   0.1630	  -0.6739	   0.7065	  10.6150	  12.1337	
  10.0000	 -31.0000	  32.5000	   0.2174	  -0.6739	   0.7065	   9.6691	  10.8495	
  12.5000	 -31.0000	  32.5000	   0.2717	  -0.6739	   0.7065	   9.1031	   9.8700	
  15.0000	 -31.0000	  32.5000	   0.3261	  -0.6739	   0.7065	   8.6363	   8.9700	
  17.5000	 -31.0000	  32.5000	   0.3804	  -0.6739	   0.7065	   8.1694	   8.0700	
  20.0000	 -31.0000	  32.5000	   0.4348	  -0.6739	   0.7065	   7.7025	   7.1700	
 -20.0000	 -31.0000	  35.0000	  -0.4348	  -0.6739	   0.7609	  28.7600	  21.5400	
 -17.5000	 -31.0000	  35.0000	  -0.3804	  -0.6739	   0.7609	  26.1538	  21.0486	
 -15.0000	 -31.0000	  35.0000	  -0.3261	  -0.6739	   0.7609	  23.5289	  20.4581	
 -12.5000	 -31.0000	  35.0000	  -0.2717	  -0.6739	   0.7609	  20.8496	  19.7907	
 -10.0000	 -31.0000	  35.0000	  -0.2174	  -0.6739	   0.7609	  18.0600	  19.0400	
  -7.5000	 -31.0000	  35.0000	  -0.1630	  -0.6739	   0.7609	  17.0534	  18.2067	
  -5.0000	 -31.0000	  35.0000	  -0.1087	  -0.6739	   0.7609	  15.9267	  17.2744	
  -2.5000	 -31.0000	  35.0000	  -0.0543	  -0.6739	   0.7609	  14.7649	  16.2967	
   0.0000	 -31.0000	  35.0000	   0.0000	  -0.6739	   0.7609	  13.6400	  15.3100	
   2.5000	 -31.0000	  35.0000	   0.0543	  -0.6739	   0.7609	  12.5894	  14.0187	
   5.0000	 -31.0000	  35.0000	   0.1087	  -0.6739	   0.7609	  11.5633	  12.7256	
   7.5000	 -31.0000	  35.0000	   0.1630	  -0.6739	   0.7609	  10.5266	  11.3727	
  10.0000	 -31.0000	  35.0000	   0.2174	  -0.6739	   0.7609	   9.4400	   9.8800	
  12.5000	 -31.0000	  35.0000	   0.2717	  -0.6739	   0.7609	   9.0553	   9.2273	
  15.0000	 -31.0000	  35.0000	   0.3261	  -0.6739	   0.7609	   8.6303	   8.4625	
  17.5000	 -31.0000	  35.0000	   0.3804	  -0.6739	   0.7609	   8.1754	   7.5823	
  20.0000	 -31.0000	  35.0000	   0.4348	  -0.6739	   0.7609	   7.6900	   6.5400	
 -20.0000	 -31.0000	  37.5000	  -0.4348	  -0.6739	   0.8152	  27.7325	  20.7425	
 -17.5000	 -31.0000	  37.5000	  -0.3804	  -0.6739	   0.8152	  25.3287	  20.1400	
 -15.0000	 -31.0000	  37.5000	  -0.3261	  -0.6739	   0.8152	  22.9250	  19.5375	
 -12.5000	 -31.0000	  37.5000	  -0.2717	  -0.6739	   0.8152	  20.5213	  18.9350	
 -10.0000	 -31.0000	  37.5000	  -0.2174	  -0.6739	   0.8152	  18.3281	  18.2750	
  -7.5000	 -31.0000	  37.5000	  -0.1630	  -0.6739	   0.8152	  16.9425	  17.3944	
  -5.0000	 -31.0000	  37.5000	  -0.1087	  -0.6739	   0.8152	  15.7675	  16.4563	
  -2.5000	 -31.0000	  37.5000	  -0.0543	  -0.6739	   0.8152	  14.5925	  15.5181	
   0.0000	 -31.0000	  37.5000	   0.0000	  -0.6739	   0.8152	  13.4567	  14.5437	
   2.5000	 -31.0000	  37.5000	   0.0543	  -0.6739	   0.8152	  12.4712	  13.4300	
   5.0000	 -31.0000	  37.5000	   0.1087	  -0.6739	   0.8152	  11.5250	  12.2800	
   7.5000	 -31.0000	  37.5000	   0.1630	  -0.6739	   0.8152	  10.5787	  11.1300	
  10.0000	 -31.0000	  37.5000	   0.2174	  -0.6739	   0.8152	   9.7223	  10.0577	
  12.5000	 -31.0000	  37.5000	   0.2717	  -0.6739	   0.8152	   9.2100	   9.2831	
  15.0000	 -31.0000	  37.5000	   0.3261	  -0.6739	   0.8152	   8.7875	   8.5862	
  17.5000	 -31.0000	  37.5000	   0.3804	  -0.6739	   0.8152	   8.3650	   7.8894	
  20.0000	 -31.0000	  37.5000	   0.4348	  -0.6739	   0.8152	   7.9425	   7.1925	
 -20.0000	 -31.0000	  40.0000	  -0.4348	  -0.6739	   0.8696	  26.7050	  19.9450	
 -17.5000	 -31.0000	  40.0000	  -0.3804	  -0.6739	   0.8696	  24.5725	  19.3650	
 -15.0000	 -31.0000	  40.0000	  -0.3261	  -0.6739	   0.8696	  22.4400	  18.7850	
 -12.5000	 -31.0000	  40.0000	  -0.2717	  -0.6739	   0.8696	  20.3075	  18.2050	
 -10.0000	 -31.0000	  40.0000	  -0.2174	  -0.6739	   0.8696	  18.3722	  17.5442	
  -7.5000	 -31.0000	  40.0000	  -0.1630	  -0.6739	   0.8696	  16.9300	  16.6812	
  -5.0000	 -31.0000	  40.0000	  -0.1087	  -0.6739	   0.8696	  15.6850	  15.7375	
  -2.5000	 -31.0000	  40.0000	  -0.0543	  -0.6739	   0.8696	  14.4400	  14.7937	
   0.0000	 -31.0000	  40.0000	   0.0000	  -0.6739	   0.8696	  13.2844	  13.8503	
   2.5000	 -31.0000	  40.0000	   0.0543	  -0.6739	   0.8696	  12.3525	  12.9075	
   5.0000	 -31.0000	  40.0000	   0.1087	  -0.6739	   0.8696	  11.5100	  11.9650	
   7.5000	 -31.0000	  40.0000	   0.1630	  -0.6739	   0.8696	  10.6675	  11.0225	
  10.0000	 -31.0000	  40.0000	   0.2174	  -0.6739	   0.8696	   9.9217	  10.1653	
  12.5000	 -31.0000	  40.0000	   0.2717	  -0.6739	   0.8696	   9.4175	   9.5212	
  15.0000	 -31.0000	  40.0000	   0.3261	  -0.6739	   0.8696	   9.0100	   8.9625	
  17.5000	 -31.0000	  40.0000	   0.3804	  -0.6739	   0.8696	   8.6025	   8.4038	
  20.0000	 -31.0000	  40.0000	   0.4348	  -0.6739	   0.8696	   8.1950	   7.8450	
 -20.0000	 -31.0000	  42.5000	  -0.4348	  -0.6739	   0.9239	  25.6775	  19.1475	
 -17.5000	 -31.0000	  42.5000	  -0.3804	  -0.6739	   0.9239	  23.8163	  18.5900	
 -15.0000	 -31.0000	  42.5000	  -0.3261	  -0.6739	   0.9239	  21.9550	  18.0325	
 -12.5000	 -31.0000	  42.5000	  -0.2717	  -0.6739	   0.9239	  20.0938	  17.4750	
 -10.0000	 -31.0000	  42.5000	  -0.2174	  -0.6739	   0.9239	  18.3261	  16.8503	
  -7.5000	 -31.0000	  42.5000	  -0.1630	  -0.6739	   0.9239	  16.9175	  15.9681	
  -5.0000	 -31.0000	  42.5000	  -0.1087	  -0.6739	   0.9239	  15.6025	  15.0187	
  -2.5000	 -31.0000	  42.5000	  -0.0543	  -0.6739	   0.9239	  14.2875	  14.0694	
   0.0000	 -31.0000	  42.5000	   0.0000	  -0.6739	   0.9239	  13.0713	  13.1568	
   2.5000	 -31.0000	  42.5000	   0.0543	  -0.6739	   0.9239	  12.2338	  12.3850	
   5.0000	 -31.0000	  42.5000	   0.1087	  -0.6739	   0.9239	  11.4950	  11.6500	
   7.5000	 -31.0000	  42.5000	   0.1630	  -0.6739	   0.9239	  10.7563	  10.9150	
  10.0000	 -31.0000	  42.5000	   0.2174	  -0.6739	   0.9239	  10.0769	  10.2339	
  12.5000	 -31.0000	  42.5000	   0.2717	  -0.6739	   0.9239	   9.6250	   9.7594	
  15.0000	 -31.0000	  42.5000	   0.3261	  -0.6739	   0.9239	   9.2325	   9.3388	
  17.5000	 -31.0000	  42.5000	   0.3804	  -0.6739	   0.9239	   8.8400	   8.9181	
  20.0000	 -31.0000	  42.5000	   0.4348	  -0.6739	   0.9239	   8.4475	   8.4975	
 -20.0000	 -31.0000	  45.0000	  -0.4348	  -0.6739	   0.9783	  24.6500	  18.3500	
 -17.5000	 -31.0000	  45.0000	  -0.3804	  -0.6739	   0.9783	  22.7240	  17.7461	
 -15.0000	 -31.0000	  45.0000	  -0.3261	  -0.6739	   0.9783	  21.0661	  17.1953	
 -12.5000	 -31.0000	  45.0000	  -0.2717	  -0.6739	   0.9783	  19.5929	  16.6832	
 -10.0000	 -31.0000	  45.0000	  -0.2174	  -0.6739	   0.9783	  18.2900	  16.2100	
  -7.5000	 -31.0000	  45.0000	  -0.1630	  -0.6739	   0.9783	  16.7007	  15.2256	
  -5.0000	 -31.0000	  45.0000	  -0.1087	  -0.6739	   0.9783	  15.3308	  14.2994	
  -2.5000	 -31.0000	  45.0000	  -0.0543	  -0.6739	   0.9783	  14.0475	  13.3735	
   0.0000	 -31.0000	  45.0000	   0.0000	  -0.6739	   0.9783	  12.7500	  12.3900	
   2.5000	 -31.0000	  45.0000	   0.0543	  -0.6739	   0.9783	  12.0754	  11.8847	
   5.0000	 -31.0000	  45.0000	   0.1087	  -0.6739	   0.9783	  11.4150	  11.3181	
   7.5000	 -31.0000	  45.0000	   0.1630	  -0.6739	   0.9783	  10.7844	  10.7592	
  10.0000	 -31.0000	  45.0000	   0.2174	  -0.6739	   0.9783	  10.2100	  10.2800	
  12.5000	 -31.0000	  45.0000	   0.2717	  -0.6739	   0.9783	   9.7765	   9.9038	
  15.0000	 -31.0000	  45.0000	   0.3261	  -0.6739	   0.9783	   9.4019	   9.5803	
  17.5000	 -31.0000	  45.0000	   0.3804	  -0.6739	   0.9783	   9.0517	   9.3184	
  20.0000	 -31.0000	  45.0000	   0.4348	  -0.6739	   0.9783	   8.7000	   9.1500	
 -20.0000	 -31.0000	  47.5000	  -0.4348	  -0.6739	   1.0326	  21.5200	  17.1300	
 -17.5000	 -31.0000	  47.5000	  -0.3804	  -0.6739	   1.0326	  20.3438	  16.6381	
 -15.0000	 -31.0000	  47.5000	  -0.3261	  -0.6739	   1.0326	  19.1675	  16.1463	
 -12.5000	 -31.0000	  47.5000	  -0.2717	  -0.6739	   1.0326	  17.9912	  15.6544	
 -10.0000	 -31.0000	  47.5000	  -0.2174	  -0.6739	   1.0326	  16.8256	  15.1111	
  -7.5000	 -31.0000	  47.5000	  -0.1630	  -0.6739	   1.0326	  15.7006	  14.3706	
  -5.0000	 -31.0000	  47.5000	  -0.1087	  -0.6739	   1.0326	  14.5862	  13.5788	
  -2.5000	 -31.0000	  47.5000	  -0.0543	  -0.6739	   1.0326	  13.4719	  12.7869	
   0.0000	 -31.0000	  47.5000	   0.0000	  -0.6739	   1.0326	  12.4470	  12.0406	
   2.5000	 -31.0000	  47.5000	   0.0543	  -0.6739	   1.0326	  11.7650	  11.4694	
   5.0000	 -31.0000	  47.5000	   0.1087	  -0.6739	   1.0326	  11.1725	  10.9438	
   7.5000	 -31.0000	  47.5000	   0.1630	  -0.6739	   1.0326	  10.5800	  10.4181	
  10.0000	 -31.0000	  47.5000	   0.2174	  -0.6739	   1.0326	  10.0420	   9.9477	
  12.5000	 -31.0000	  47.5000	   0.2717	  -0.6739	   1.0326	   9.7131	   9.6887	
  15.0000	 -31.0000	  47.5000	   0.3261	  -0.6739	   1.0326	   9.4387	   9.4850	
  17.5000	 -31.0000	  47.5000	   0.3804	  -0.6739	   1.0326	   9.1644	   9.2812	
  20.0000	 -31.0000	  47.5000	   0.4348	  -0.6739	   1.0326	   8.8900	   9.0775	
 -20.0000	 -31.0000	  50.0000	  -0.4348	  -0.6739	   1.0870	  18.3900	  15.9100	
 -17.5000	 -31.0000	  50.0000	  -0.3804	  -0.6739	   1.0870	  17.6275	  15.4612	
 -15.0000	 -31.0000	  50.0000	  -0.3261	  -0.6739	   1.0870	  16.8650	  15.0125	
 -12.5000	 -31.0000	  50.0000	  -0.2717	  -0.6739	   1.0870	  16.1025	  14.5638	
 -10.0000	 -31.0000	  50.0000	  -0.2174	  -0.6739	   1.0870	  15.3219	  14.0750	
  -7.5000	 -31.0000	  50.0000	  -0.1630	  -0.6739	   1.0870	  14.4962	  13.4863	
  -5.0000	 -31.0000	  50.0000	  -0.1087	  -0.6739	   1.0870	  13.6525	  12.8575	
  -2.5000	 -31.0000	  50.0000	  -0.0543	  -0.6739	   1.0870	  12.8087	  12.2287	
   0.0000	 -31.0000	  50.0000	   0.0000	  -0.6739	   1.0870	  12.0303	  11.6233	
   2.5000	 -31.0000	  50.0000	   0.0543	  -0.6739	   1.0870	  11.4150	  11.0762	
   5.0000	 -31.0000	  50.0000	   0.1087	  -0.6739	   1.0870	  10.8650	  10.5525	
   7.5000	 -31.0000	  50.0000	   0.1630	  -0.6739	   1.0870	  10.3150	  10.0288	
  10.0000	 -31.0000	  50.0000	   0.2174	  -0.6739	   1.0870	   9.8492	   9.5936	
  12.5000	 -31.0000	  50.0000	   0.2717	  -0.6739	   1.0870	   9.5938	   9.3800	
  15.0000	 -31.0000	  50.0000	   0.3261	  -0.6739	   1.0870	   9.4225	   9.2550	
  17.5000	 -31.0000	  50.0000	   0.3804	  -0.6739	   1.0870	   9.2513	   9.1300	
  20.0000	 -31.0000	  50.0000	   0.4348	  -0.6739	   1.0870	   9.0800	   9.0050	
 -20.0000	 -31.0000	  52.5000	  -0.4348	  -0.6739	   1.1413	  15.2600	  14.6900	
 -17.5000	 -31.0000	  52.5000	  -0.3804	  -0.6739	   1.1413	  14.9112	  14.2844	
 -15.0000	 -31.0000	  52.5000	  -0.3261	  -0.6739	   1.1413	  14.5625	  13.8788	
 -12.5000	 -31.0000	  52.5000	  -0.2717	  -0.6739	   1.1413	  14.2138	  13.4731	
 -10.0000	 -31.0000	  52.5000	  -0.2174	  -0.6739	   1.1413	  13.8265	  13.0572	
  -7.5000	 -31.0000	  52.5000	  -0.1630	  -0.6739	   1.1413	  13.2919	  12.6019	
  -5.0000	 -31.0000	  52.5000	  -0.1087	  -0.6739	   1.1413	  12.7188	  12.1363	
  -2.5000	 -31.0000	  52.5000	  -0.0543	  -0.6739	   1.1413	  12.1456	  11.6706	
   0.0000	 -31.0000	  52.5000	   0.0000	  -0.6739	   1.1413	  11.5838	  11.1954	
   2.5000	 -31.0000	  52.5000	   0.0543	  -0.6739	   1.1413	  11.0650	  10.6831	
   5.0000	 -31.0000	  52.5000	   0.1087	  -0.6739	   1.1413	  10.5575	  10.1612	
   7.5000	 -31.0000	  52.5000	   0.1630	  -0.6739	   1.1413	  10.0500	   9.6394	
  10.0000	 -31.0000	  52.5000	   0.2174	  -0.6739	   1.1413	   9.6178	   9.1990	
  12.5000	 -31.0000	  52.5000	   0.2717	  -0.6739	   1.1413	   9.4744	   9.0712	
  15.0000	 -31.0000	  52.5000	   0.3261	  -0.6739	   1.1413	   9.4062	   9.0250	
  17.5000	 -31.0000	  52.5000	   0.3804	  -0.6739	   1.1413	   9.3381	   8.9787	
  20.0000	 -31.0000	  52.5000	   0.4348	  -0.6739	   1.1413	   9.2700	   8.9325	
 -20.0000	 -31.0000	  55.0000	  -0.4348	  -0.6739	   1.1957	  12.1300	  13.4700	
 -17.5000	 -31.0000	  55.0000	  -0.3804	  -0.6739	   1.1957	  12.3189	  13.0522	
 -15.0000	 -31.0000	  55.0000	  -0.3261	  -0.6739	   1.1957	  12.3611	  12.7011	
 -12.5000	 -31.0000	  55.0000	  -0.2717	  -0.6739	   1.1957	  12.3571	  12.3701	
 -10.0000	 -31.0000	  55.0000	  -0.2174	  -0.6739	   1.1957	  12.3900	  12.0200	
  -7.5000	 -31.0000	  55.0000	  -0.1630	  -0.6739	   1.1957	  12.0507	  11.7129	
  -5.0000	 -31.0000	  55.0000	  -0.1087	  -0.6739	   1.1957	  11.7075	  11.3914	
  -2.5000	 -31.0000	  55.0000	  -0.0543	  -0.6739	   1.1957	  11.3997	  11.0807	
   0.0000	 -31.0000	  55.0000	   0.0000	  -0.6739	   1.1957	  11.1800	  10.8100	
   2.5000	 -31.0000	  55.0000	   0.0543	  -0.6739	   1.1957	  10.6219	  10.2577	
   5.0000	 -31.0000	  55.0000	   0.1087	  -0.6739	   1.1957	  10.1458	   9.7453	
   7.5000	 -31.0000	  55.0000	   0.1630	  -0.6739	   1.1957	   9.7174	   9.2441	
  10.0000	 -31.0000	  55.0000	   0.2174	  -0.6739	   1.1957	   9.3200	   8.7300	
  12.5000	 -31.0000	  55.0000	   0.2717	  -0.6739	   1.1957	   9.2754	   8.7459	
  15.0000	 -31.0000	  55.0000	   0.3261	  -0.6739	   1.1957	   9.2547	   8.7425	
  17.5000	 -31.0000	  55.0000	   0.3804	  -0.6739	   1.1957	   9.2959	   8.7631	
  20.0000	 -31.0000	  55.0000	   0.4348	  -0.6739	   1.1957	   9.4600	   8.8600	
 -20.0000	 -31.0000	  57.5000	  -0.4348	  -0.6739	   1.2500	   9.9900	  11.8025	
 -17.5000	 -31.0000	  57.5000	  -0.3804	  -0.6739	   1.2500	  10.2012	  11.6081	
 -15.0000	 -31.0000	  57.5000	  -0.3261	  -0.6739	   1.2500	  10.4125	  11.4138	
 -12.5000	 -31.0000	  57.5000	  -0.2717	  -0.6739	   1.2500	  10.6238	  11.2194	
 -10.0000	 -31.0000	  57.5000	  -0.2174	  -0.6739	   1.2500	  10.7703	  11.0208	
  -7.5000	 -31.0000	  57.5000	  -0.1630	  -0.6739	   1.2500	  10.6687	  10.8062	
  -5.0000	 -31.0000	  57.5000	  -0.1087	  -0.6739	   1.2500	  10.5025	  10.5875	