Variables = "x [mm]"	"y [mm]"	"z [mm]"	"x/B"	"y/B"	"z/B"	"C*"	"C*std"	
Zone T = "Trees_West_y=87mm_Tec" I=17 J=25 F=POINT
 -20.0000	  87.0000	   5.0000	  -0.4348	   1.8913	   0.1087	 120.8406	  33.3673	
 -17.5000	  87.0000	   5.0000	  -0.3804	   1.8913	   0.1087	 145.9906	  58.8537	
 -15.0000	  87.0000	   5.0000	  -0.3261	   1.8913	   0.1087	 171.3937	  84.4725	
 -12.5000	  87.0000	   5.0000	  -0.2717	   1.8913	   0.1087	 196.7969	 110.0913	
 -10.0000	  87.0000	   5.0000	  -0.2174	   1.8913	   0.1087	 222.2000	 135.7100	
  -7.5000	  87.0000	   5.0000	  -0.1630	   1.8913	   0.1087	 180.3225	 131.0025	
  -5.0000	  87.0000	   5.0000	  -0.1087	   1.8913	   0.1087	 138.4450	 126.2950	
  -2.5000	  87.0000	   5.0000	  -0.0543	   1.8913	   0.1087	  96.5675	 121.5875	
   0.0000	  87.0000	   5.0000	   0.0000	   1.8913	   0.1087	  54.6900	 116.8800	
   2.5000	  87.0000	   5.0000	   0.0543	   1.8913	   0.1087	  43.6475	  90.3000	
   5.0000	  87.0000	   5.0000	   0.1087	   1.8913	   0.1087	  32.6050	  63.7200	
   7.5000	  87.0000	   5.0000	   0.1630	   1.8913	   0.1087	  21.5625	  37.1400	
  10.0000	  87.0000	   5.0000	   0.2174	   1.8913	   0.1087	  10.5200	  10.5600	
  12.5000	  87.0000	   5.0000	   0.2717	   1.8913	   0.1087	  10.2350	  10.0050	
  15.0000	  87.0000	   5.0000	   0.3261	   1.8913	   0.1087	   9.9500	   9.4500	
  17.5000	  87.0000	   5.0000	   0.3804	   1.8913	   0.1087	   9.6650	   8.8950	
  20.0000	  87.0000	   5.0000	   0.4348	   1.8913	   0.1087	   9.3800	   8.3400	
 -20.0000	  87.0000	   7.5000	  -0.4348	   1.8913	   0.1630	 122.0586	  39.3836	
 -17.5000	  87.0000	   7.5000	  -0.3804	   1.8913	   0.1630	 136.3000	  58.9533	
 -15.0000	  87.0000	   7.5000	  -0.3261	   1.8913	   0.1630	 150.5750	  78.7572	
 -12.5000	  87.0000	   7.5000	  -0.2717	   1.8913	   0.1630	 164.8500	  98.5611	
 -10.0000	  87.0000	   7.5000	  -0.2174	   1.8913	   0.1630	 170.2164	 113.5273	
  -7.5000	  87.0000	   7.5000	  -0.1630	   1.8913	   0.1630	 145.6275	 112.2269	
  -5.0000	  87.0000	   7.5000	  -0.1087	   1.8913	   0.1630	 112.1300	 106.0888	
  -2.5000	  87.0000	   7.5000	  -0.0543	   1.8913	   0.1630	  78.6325	  99.9506	
   0.0000	  87.0000	   7.5000	   0.0000	   1.8913	   0.1630	  49.3923	  91.2630	
   2.5000	  87.0000	   7.5000	   0.0543	   1.8913	   0.1630	  36.4719	  72.8025	
   5.0000	  87.0000	   7.5000	   0.1087	   1.8913	   0.1630	  27.8088	  51.7925	
   7.5000	  87.0000	   7.5000	   0.1630	   1.8913	   0.1630	  19.1456	  30.7825	
  10.0000	  87.0000	   7.5000	   0.2174	   1.8913	   0.1630	  11.9268	  13.2859	
  12.5000	  87.0000	   7.5000	   0.2717	   1.8913	   0.1630	  10.2444	   9.2575	
  15.0000	  87.0000	   7.5000	   0.3261	   1.8913	   0.1630	  10.0063	   8.7425	
  17.5000	  87.0000	   7.5000	   0.3804	   1.8913	   0.1630	   9.7681	   8.2275	
  20.0000	  87.0000	   7.5000	   0.4348	   1.8913	   0.1630	   9.5300	   7.7125	
 -20.0000	  87.0000	  10.0000	  -0.4348	   1.8913	   0.2174	 123.2766	  45.3999	
 -17.5000	  87.0000	  10.0000	  -0.3804	   1.8913	   0.2174	 126.6094	  59.0528	
 -15.0000	  87.0000	  10.0000	  -0.3261	   1.8913	   0.2174	 129.7562	  73.0419	
 -12.5000	  87.0000	  10.0000	  -0.2717	   1.8913	   0.2174	 132.9031	  87.0309	
 -10.0000	  87.0000	  10.0000	  -0.2174	   1.8913	   0.2174	 129.2598	  95.8409	
  -7.5000	  87.0000	  10.0000	  -0.1630	   1.8913	   0.2174	 110.9325	  93.4513	
  -5.0000	  87.0000	  10.0000	  -0.1087	   1.8913	   0.2174	  85.8150	  85.8825	
  -2.5000	  87.0000	  10.0000	  -0.0543	   1.8913	   0.2174	  60.6975	  78.3137	
   0.0000	  87.0000	  10.0000	   0.0000	   1.8913	   0.2174	  39.7653	  68.9958	
   2.5000	  87.0000	  10.0000	   0.0543	   1.8913	   0.2174	  29.2963	  55.3050	
   5.0000	  87.0000	  10.0000	   0.1087	   1.8913	   0.2174	  23.0125	  39.8650	
   7.5000	  87.0000	  10.0000	   0.1630	   1.8913	   0.2174	  16.7287	  24.4250	
  10.0000	  87.0000	  10.0000	   0.2174	   1.8913	   0.2174	  11.7989	  12.3106	
  12.5000	  87.0000	  10.0000	   0.2717	   1.8913	   0.2174	  10.2538	   8.5100	
  15.0000	  87.0000	  10.0000	   0.3261	   1.8913	   0.2174	  10.0625	   8.0350	
  17.5000	  87.0000	  10.0000	   0.3804	   1.8913	   0.2174	   9.8713	   7.5600	
  20.0000	  87.0000	  10.0000	   0.4348	   1.8913	   0.2174	   9.6800	   7.0850	
 -20.0000	  87.0000	  12.5000	  -0.4348	   1.8913	   0.2717	 124.4946	  51.4162	
 -17.5000	  87.0000	  12.5000	  -0.3804	   1.8913	   0.2717	 116.9187	  59.1523	
 -15.0000	  87.0000	  12.5000	  -0.3261	   1.8913	   0.2717	 108.9375	  67.3266	
 -12.5000	  87.0000	  12.5000	  -0.2717	   1.8913	   0.2717	 100.9562	  75.5008	
 -10.0000	  87.0000	  12.5000	  -0.2174	   1.8913	   0.2717	  91.3421	  80.4725	
  -7.5000	  87.0000	  12.5000	  -0.1630	   1.8913	   0.2717	  76.2375	  74.6756	
  -5.0000	  87.0000	  12.5000	  -0.1087	   1.8913	   0.2717	  59.5000	  65.6762	
  -2.5000	  87.0000	  12.5000	  -0.0543	   1.8913	   0.2717	  42.7625	  56.6769	
   0.0000	  87.0000	  12.5000	   0.0000	   1.8913	   0.2717	  28.2250	  47.5282	
   2.5000	  87.0000	  12.5000	   0.0543	   1.8913	   0.2717	  22.1206	  37.8075	
   5.0000	  87.0000	  12.5000	   0.1087	   1.8913	   0.2717	  18.2162	  27.9375	
   7.5000	  87.0000	  12.5000	   0.1630	   1.8913	   0.2717	  14.3119	  18.0675	
  10.0000	  87.0000	  12.5000	   0.2174	   1.8913	   0.2717	  11.0521	   9.8149	
  12.5000	  87.0000	  12.5000	   0.2717	   1.8913	   0.2717	  10.2631	   7.7625	
  15.0000	  87.0000	  12.5000	   0.3261	   1.8913	   0.2717	  10.1188	   7.3275	
  17.5000	  87.0000	  12.5000	   0.3804	   1.8913	   0.2717	   9.9744	   6.8925	
  20.0000	  87.0000	  12.5000	   0.4348	   1.8913	   0.2717	   9.8300	   6.4575	
 -20.0000	  87.0000	  15.0000	  -0.4348	   1.8913	   0.3261	 125.7126	  57.4325	
 -17.5000	  87.0000	  15.0000	  -0.3804	   1.8913	   0.3261	 107.4260	  59.1346	
 -15.0000	  87.0000	  15.0000	  -0.3261	   1.8913	   0.3261	  90.5692	  61.8465	
 -12.5000	  87.0000	  15.0000	  -0.2717	   1.8913	   0.3261	  72.8366	  64.8144	
 -10.0000	  87.0000	  15.0000	  -0.2174	   1.8913	   0.3261	  49.9000	  66.3300	
  -7.5000	  87.0000	  15.0000	  -0.1630	   1.8913	   0.3261	  47.3229	  58.2151	
  -5.0000	  87.0000	  15.0000	  -0.1087	   1.8913	   0.3261	  38.8522	  48.9322	
  -2.5000	  87.0000	  15.0000	  -0.0543	   1.8913	   0.3261	  27.7909	  38.0666	
   0.0000	  87.0000	  15.0000	   0.0000	   1.8913	   0.3261	  16.4700	  24.6100	
   2.5000	  87.0000	  15.0000	   0.0543	   1.8913	   0.3261	  16.1228	  22.8617	
   5.0000	  87.0000	  15.0000	   0.1087	   1.8913	   0.3261	  14.4581	  18.2411	
   7.5000	  87.0000	  15.0000	   0.1630	   1.8913	   0.3261	  12.3187	  12.6006	
  10.0000	  87.0000	  15.0000	   0.2174	   1.8913	   0.3261	  10.3700	   7.4100	
  12.5000	  87.0000	  15.0000	   0.2717	   1.8913	   0.3261	  10.2996	   7.0795	
  15.0000	  87.0000	  15.0000	   0.3261	   1.8913	   0.3261	  10.1847	   6.7094	
  17.5000	  87.0000	  15.0000	   0.3804	   1.8913	   0.3261	  10.0654	   6.2985	
  20.0000	  87.0000	  15.0000	   0.4348	   1.8913	   0.3261	   9.9800	   5.8300	
 -20.0000	  87.0000	  17.5000	  -0.4348	   1.8913	   0.3804	 120.3860	  55.1016	
 -17.5000	  87.0000	  17.5000	  -0.3804	   1.8913	   0.3804	 102.9123	  56.1658	
 -15.0000	  87.0000	  17.5000	  -0.3261	   1.8913	   0.3804	  84.8616	  57.5822	
 -12.5000	  87.0000	  17.5000	  -0.2717	   1.8913	   0.3804	  66.8108	  58.9986	
 -10.0000	  87.0000	  17.5000	  -0.2174	   1.8913	   0.3804	  50.5981	  58.3260	
  -7.5000	  87.0000	  17.5000	  -0.1630	   1.8913	   0.3804	  40.5662	  50.6294	
  -5.0000	  87.0000	  17.5000	  -0.1087	   1.8913	   0.3804	  32.3725	  40.8437	
  -2.5000	  87.0000	  17.5000	  -0.0543	   1.8913	   0.3804	  24.1788	  31.0581	
   0.0000	  87.0000	  17.5000	   0.0000	   1.8913	   0.3804	  17.1591	  22.3372	
   2.5000	  87.0000	  17.5000	   0.0543	   1.8913	   0.3804	  14.6400	  17.6975	
   5.0000	  87.0000	  17.5000	   0.1087	   1.8913	   0.3804	  13.2950	  14.1225	
   7.5000	  87.0000	  17.5000	   0.1630	   1.8913	   0.3804	  11.9500	  10.5475	
  10.0000	  87.0000	  17.5000	   0.2174	   1.8913	   0.3804	  10.8073	   7.5290	
  12.5000	  87.0000	  17.5000	   0.2717	   1.8913	   0.3804	  10.4400	   6.6438	
  15.0000	  87.0000	  17.5000	   0.3261	   1.8913	   0.3804	  10.2750	   6.3150	
  17.5000	  87.0000	  17.5000	   0.3804	   1.8913	   0.3804	  10.1100	   5.9863	
  20.0000	  87.0000	  17.5000	   0.4348	   1.8913	   0.3804	   9.9450	   5.6575	
 -20.0000	  87.0000	  20.0000	  -0.4348	   1.8913	   0.4348	 115.0594	  52.7707	
 -17.5000	  87.0000	  20.0000	  -0.3804	   1.8913	   0.4348	  98.5966	  53.0797	
 -15.0000	  87.0000	  20.0000	  -0.3261	   1.8913	   0.4348	  81.6044	  53.5531	
 -12.5000	  87.0000	  20.0000	  -0.2717	   1.8913	   0.4348	  64.6122	  54.0266	
 -10.0000	  87.0000	  20.0000	  -0.2174	   1.8913	   0.4348	  49.7731	  52.1902	
  -7.5000	  87.0000	  20.0000	  -0.1630	   1.8913	   0.4348	  39.5900	  45.3588	
  -5.0000	  87.0000	  20.0000	  -0.1087	   1.8913	   0.4348	  31.5600	  36.2175	
  -2.5000	  87.0000	  20.0000	  -0.0543	   1.8913	   0.4348	  23.5300	  27.0762	
   0.0000	  87.0000	  20.0000	   0.0000	   1.8913	   0.4348	  17.0256	  19.3331	
   2.5000	  87.0000	  20.0000	   0.0543	   1.8913	   0.4348	  14.3350	  15.0850	
   5.0000	  87.0000	  20.0000	   0.1087	   1.8913	   0.4348	  13.1700	  12.2350	
   7.5000	  87.0000	  20.0000	   0.1630	   1.8913	   0.4348	  12.0050	   9.3850	
  10.0000	  87.0000	  20.0000	   0.2174	   1.8913	   0.4348	  11.0472	   7.1100	
  12.5000	  87.0000	  20.0000	   0.2717	   1.8913	   0.4348	  10.6075	   6.2725	
  15.0000	  87.0000	  20.0000	   0.3261	   1.8913	   0.4348	  10.3750	   6.0100	
  17.5000	  87.0000	  20.0000	   0.3804	   1.8913	   0.4348	  10.1425	   5.7475	
  20.0000	  87.0000	  20.0000	   0.4348	   1.8913	   0.4348	   9.9100	   5.4850	
 -20.0000	  87.0000	  22.5000	  -0.4348	   1.8913	   0.4891	 109.7329	  50.4397	
 -17.5000	  87.0000	  22.5000	  -0.3804	   1.8913	   0.4891	  94.2808	  49.9936	
 -15.0000	  87.0000	  22.5000	  -0.3261	   1.8913	   0.4891	  78.3472	  49.5241	
 -12.5000	  87.0000	  22.5000	  -0.2717	   1.8913	   0.4891	  62.4136	  49.0545	
 -10.0000	  87.0000	  22.5000	  -0.2174	   1.8913	   0.4891	  47.9844	  47.0881	
  -7.5000	  87.0000	  22.5000	  -0.1630	   1.8913	   0.4891	  38.6138	  40.0881	
  -5.0000	  87.0000	  22.5000	  -0.1087	   1.8913	   0.4891	  30.7475	  31.5913	
  -2.5000	  87.0000	  22.5000	  -0.0543	   1.8913	   0.4891	  22.8812	  23.0944	
   0.0000	  87.0000	  22.5000	   0.0000	   1.8913	   0.4891	  16.1946	  15.6898	
   2.5000	  87.0000	  22.5000	   0.0543	   1.8913	   0.4891	  14.0300	  12.4725	
   5.0000	  87.0000	  22.5000	   0.1087	   1.8913	   0.4891	  13.0450	  10.3475	
   7.5000	  87.0000	  22.5000	   0.1630	   1.8913	   0.4891	  12.0600	   8.2225	
  10.0000	  87.0000	  22.5000	   0.2174	   1.8913	   0.4891	  11.1924	   6.4281	
  12.5000	  87.0000	  22.5000	   0.2717	   1.8913	   0.4891	  10.7750	   5.9013	
  15.0000	  87.0000	  22.5000	   0.3261	   1.8913	   0.4891	  10.4750	   5.7050	
  17.5000	  87.0000	  22.5000	   0.3804	   1.8913	   0.4891	  10.1750	   5.5088	
  20.0000	  87.0000	  22.5000	   0.4348	   1.8913	   0.4891	   9.8750	   5.3125	
 -20.0000	  87.0000	  25.0000	  -0.4348	   1.8913	   0.5435	 104.4063	  48.1088	
 -17.5000	  87.0000	  25.0000	  -0.3804	   1.8913	   0.5435	  90.0675	  46.9607	
 -15.0000	  87.0000	  25.0000	  -0.3261	   1.8913	   0.5435	  75.2654	  45.7248	
 -12.5000	  87.0000	  25.0000	  -0.2717	   1.8913	   0.5435	  60.1802	  44.3203	
 -10.0000	  87.0000	  25.0000	  -0.2174	   1.8913	   0.5435	  45.3400	  42.6700	
  -7.5000	  87.0000	  25.0000	  -0.1630	   1.8913	   0.5435	  37.4389	  35.2251	
  -5.0000	  87.0000	  25.0000	  -0.1087	   1.8913	   0.5435	  29.8194	  27.5661	
  -2.5000	  87.0000	  25.0000	  -0.0543	   1.8913	   0.5435	  22.2529	  19.6324	
   0.0000	  87.0000	  25.0000	   0.0000	   1.8913	   0.5435	  14.5300	  11.2600	
   2.5000	  87.0000	  25.0000	   0.0543	   1.8913	   0.5435	  13.8219	  10.3195	
   5.0000	  87.0000	  25.0000	   0.1087	   1.8913	   0.5435	  13.0028	   8.9047	
   7.5000	  87.0000	  25.0000	   0.1630	   1.8913	   0.5435	  12.1459	   7.2866	
  10.0000	  87.0000	  25.0000	   0.2174	   1.8913	   0.5435	  11.3100	   5.6600	
  12.5000	  87.0000	  25.0000	   0.2717	   1.8913	   0.5435	  10.9530	   5.6264	
  15.0000	  87.0000	  25.0000	   0.3261	   1.8913	   0.5435	  10.6050	   5.5072	
  17.5000	  87.0000	  25.0000	   0.3804	   1.8913	   0.5435	  10.2433	   5.3390	
  20.0000	  87.0000	  25.0000	   0.4348	   1.8913	   0.5435	   9.8400	   5.1400	
 -20.0000	  87.0000	  27.5000	  -0.4348	   1.8913	   0.5978	 103.6877	  47.2550	
 -17.5000	  87.0000	  27.5000	  -0.3804	   1.8913	   0.5978	  88.4338	  45.2667	
 -15.0000	  87.0000	  27.5000	  -0.3261	   1.8913	   0.5978	  73.0900	  43.1128	
 -12.5000	  87.0000	  27.5000	  -0.2717	   1.8913	   0.5978	  57.7462	  40.9589	
 -10.0000	  87.0000	  27.5000	  -0.2174	   1.8913	   0.5978	  43.9771	  37.9236	
  -7.5000	  87.0000	  27.5000	  -0.1630	   1.8913	   0.5978	  35.5025	  31.9244	
  -5.0000	  87.0000	  27.5000	  -0.1087	   1.8913	   0.5978	  28.6025	  25.0437	
  -2.5000	  87.0000	  27.5000	  -0.0543	   1.8913	   0.5978	  21.7025	  18.1631	
   0.0000	  87.0000	  27.5000	   0.0000	   1.8913	   0.5978	  15.8452	  12.2299	
   2.5000	  87.0000	  27.5000	   0.0543	   1.8913	   0.5978	  13.9850	   9.9281	
   5.0000	  87.0000	  27.5000	   0.1087	   1.8913	   0.5978	  13.1675	   8.5738	
   7.5000	  87.0000	  27.5000	   0.1630	   1.8913	   0.5978	  12.3500	   7.2194	
  10.0000	  87.0000	  27.5000	   0.2174	   1.8913	   0.5978	  11.6107	   6.0725	
  12.5000	  87.0000	  27.5000	   0.2717	   1.8913	   0.5978	  11.1713	   5.7212	
  15.0000	  87.0000	  27.5000	   0.3261	   1.8913	   0.5978	  10.8100	   5.5775	
  17.5000	  87.0000	  27.5000	   0.3804	   1.8913	   0.5978	  10.4488	   5.4337	
  20.0000	  87.0000	  27.5000	   0.4348	   1.8913	   0.5978	  10.0875	   5.2900	
 -20.0000	  87.0000	  30.0000	  -0.4348	   1.8913	   0.6522	 102.9691	  46.4011	
 -17.5000	  87.0000	  30.0000	  -0.3804	   1.8913	   0.6522	  86.9025	  43.6259	
 -15.0000	  87.0000	  30.0000	  -0.3261	   1.8913	   0.6522	  71.0900	  40.7306	
 -12.5000	  87.0000	  30.0000	  -0.2717	   1.8913	   0.6522	  55.2775	  37.8353	
 -10.0000	  87.0000	  30.0000	  -0.2174	   1.8913	   0.6522	  41.7989	  34.2161	
  -7.5000	  87.0000	  30.0000	  -0.1630	   1.8913	   0.6522	  33.3675	  29.0312	
  -5.0000	  87.0000	  30.0000	  -0.1087	   1.8913	   0.6522	  27.2700	  23.1225	
  -2.5000	  87.0000	  30.0000	  -0.0543	   1.8913	   0.6522	  21.1725	  17.2137	
   0.0000	  87.0000	  30.0000	   0.0000	   1.8913	   0.6522	  16.2456	  12.3272	
   2.5000	  87.0000	  30.0000	   0.0543	   1.8913	   0.6522	  14.2450	   9.9963	
   5.0000	  87.0000	  30.0000	   0.1087	   1.8913	   0.6522	  13.4150	   8.6875	
   7.5000	  87.0000	  30.0000	   0.1630	   1.8913	   0.6522	  12.5850	   7.3787	
  10.0000	  87.0000	  30.0000	   0.2174	   1.8913	   0.6522	  11.8606	   6.3258	
  12.5000	  87.0000	  30.0000	   0.2717	   1.8913	   0.6522	  11.4000	   5.9125	
  15.0000	  87.0000	  30.0000	   0.3261	   1.8913	   0.6522	  11.0450	   5.7550	
  17.5000	  87.0000	  30.0000	   0.3804	   1.8913	   0.6522	  10.6900	   5.5975	
  20.0000	  87.0000	  30.0000	   0.4348	   1.8913	   0.6522	  10.3350	   5.4400	
 -20.0000	  87.0000	  32.5000	  -0.4348	   1.8913	   0.7065	 102.2505	  45.5473	
 -17.5000	  87.0000	  32.5000	  -0.3804	   1.8913	   0.7065	  85.3712	  41.9852	
 -15.0000	  87.0000	  32.5000	  -0.3261	   1.8913	   0.7065	  69.0900	  38.3484	
 -12.5000	  87.0000	  32.5000	  -0.2717	   1.8913	   0.7065	  52.8088	  34.7117	
 -10.0000	  87.0000	  32.5000	  -0.2174	   1.8913	   0.7065	  38.5762	  30.8325	
  -7.5000	  87.0000	  32.5000	  -0.1630	   1.8913	   0.7065	  31.2325	  26.1381	
  -5.0000	  87.0000	  32.5000	  -0.1087	   1.8913	   0.7065	  25.9375	  21.2012	
  -2.5000	  87.0000	  32.5000	  -0.0543	   1.8913	   0.7065	  20.6425	  16.2644	
   0.0000	  87.0000	  32.5000	   0.0000	   1.8913	   0.7065	  16.1108	  11.9573	
   2.5000	  87.0000	  32.5000	   0.0543	   1.8913	   0.7065	  14.5050	  10.0644	
   5.0000	  87.0000	  32.5000	   0.1087	   1.8913	   0.7065	  13.6625	   8.8012	
   7.5000	  87.0000	  32.5000	   0.1630	   1.8913	   0.7065	  12.8200	   7.5381	
  10.0000	  87.0000	  32.5000	   0.2174	   1.8913	   0.7065	  12.0621	   6.4622	
  12.5000	  87.0000	  32.5000	   0.2717	   1.8913	   0.7065	  11.6288	   6.1038	
  15.0000	  87.0000	  32.5000	   0.3261	   1.8913	   0.7065	  11.2800	   5.9325	
  17.5000	  87.0000	  32.5000	   0.3804	   1.8913	   0.7065	  10.9312	   5.7612	
  20.0000	  87.0000	  32.5000	   0.4348	   1.8913	   0.7065	  10.5825	   5.5900	
 -20.0000	  87.0000	  35.0000	  -0.4348	   1.8913	   0.7609	 101.5319	  44.6934	
 -17.5000	  87.0000	  35.0000	  -0.3804	   1.8913	   0.7609	  83.6153	  40.3547	
 -15.0000	  87.0000	  35.0000	  -0.3261	   1.8913	   0.7609	  66.6178	  36.1302	
 -12.5000	  87.0000	  35.0000	  -0.2717	   1.8913	   0.7609	  50.2545	  31.8543	
 -10.0000	  87.0000	  35.0000	  -0.2174	   1.8913	   0.7609	  33.5900	  27.2100	
  -7.5000	  87.0000	  35.0000	  -0.1630	   1.8913	   0.7609	  29.3675	  23.6361	
  -5.0000	  87.0000	  35.0000	  -0.1087	   1.8913	   0.7609	  24.8483	  19.6356	
  -2.5000	  87.0000	  35.0000	  -0.0543	   1.8913	   0.7609	  20.2179	  15.4725	
   0.0000	  87.0000	  35.0000	   0.0000	   1.8913	   0.7609	  15.6200	  11.3500	
   2.5000	  87.0000	  35.0000	   0.0543	   1.8913	   0.7609	  14.7836	  10.1740	
   5.0000	  87.0000	  35.0000	   0.1087	   1.8913	   0.7609	  13.9283	   8.9697	
   7.5000	  87.0000	  35.0000	   0.1630	   1.8913	   0.7609	  13.0646	   7.7405	
  10.0000	  87.0000	  35.0000	   0.2174	   1.8913	   0.7609	  12.2000	   6.4800	
  12.5000	  87.0000	  35.0000	   0.2717	   1.8913	   0.7609	  11.8552	   6.3277	
  15.0000	  87.0000	  35.0000	   0.3261	   1.8913	   0.7609	  11.5025	   6.1381	
  17.5000	  87.0000	  35.0000	   0.3804	   1.8913	   0.7609	  11.1555	   5.9356	
  20.0000	  87.0000	  35.0000	   0.4348	   1.8913	   0.7609	  10.8300	   5.7400	
 -20.0000	  87.0000	  37.5000	  -0.4348	   1.8913	   0.8152	  91.5001	  43.3133	
 -17.5000	  87.0000	  37.5000	  -0.3804	   1.8913	   0.8152	  76.2052	  38.9848	
 -15.0000	  87.0000	  37.5000	  -0.3261	   1.8913	   0.8152	  61.7059	  34.7591	
 -12.5000	  87.0000	  37.5000	  -0.2717	   1.8913	   0.8152	  47.2067	  30.5333	
 -10.0000	  87.0000	  37.5000	  -0.2174	   1.8913	   0.8152	  34.6337	  26.4103	
  -7.5000	  87.0000	  37.5000	  -0.1630	   1.8913	   0.8152	  28.5375	  22.6331	
  -5.0000	  87.0000	  37.5000	  -0.1087	   1.8913	   0.8152	  24.3675	  18.9587	
  -2.5000	  87.0000	  37.5000	  -0.0543	   1.8913	   0.8152	  20.1975	  15.2844	
   0.0000	  87.0000	  37.5000	   0.0000	   1.8913	   0.8152	  16.5891	  12.0397	
   2.5000	  87.0000	  37.5000	   0.0543	   1.8913	   0.8152	  15.1337	  10.4425	
   5.0000	  87.0000	  37.5000	   0.1087	   1.8913	   0.8152	  14.2400	   9.2750	
   7.5000	  87.0000	  37.5000	   0.1630	   1.8913	   0.8152	  13.3462	   8.1075	
  10.0000	  87.0000	  37.5000	   0.2174	   1.8913	   0.8152	  12.5407	   7.0950	
  12.5000	  87.0000	  37.5000	   0.2717	   1.8913	   0.8152	  12.0731	   6.6769	
  15.0000	  87.0000	  37.5000	   0.3261	   1.8913	   0.8152	  11.6937	   6.4138	
  17.5000	  87.0000	  37.5000	   0.3804	   1.8913	   0.8152	  11.3144	   6.1506	
  20.0000	  87.0000	  37.5000	   0.4348	   1.8913	   0.8152	  10.9350	   5.8875	
 -20.0000	  87.0000	  40.0000	  -0.4348	   1.8913	   0.8696	  81.4682	  41.9332	
 -17.5000	  87.0000	  40.0000	  -0.3804	   1.8913	   0.8696	  68.5703	  37.6253	
 -15.0000	  87.0000	  40.0000	  -0.3261	   1.8913	   0.8696	  56.3219	  33.5519	
 -12.5000	  87.0000	  40.0000	  -0.2717	   1.8913	   0.8696	  44.0734	  29.4784	
 -10.0000	  87.0000	  40.0000	  -0.2174	   1.8913	   0.8696	  33.8432	  25.5707	
  -7.5000	  87.0000	  40.0000	  -0.1630	   1.8913	   0.8696	  27.9775	  22.0212	
  -5.0000	  87.0000	  40.0000	  -0.1087	   1.8913	   0.8696	  24.1300	  18.6375	
  -2.5000	  87.0000	  40.0000	  -0.0543	   1.8913	   0.8696	  20.2825	  15.2537	
   0.0000	  87.0000	  40.0000	   0.0000	   1.8913	   0.8696	  17.0828	  12.3736	
   2.5000	  87.0000	  40.0000	   0.0543	   1.8913	   0.8696	  15.5025	  10.7525	
   5.0000	  87.0000	  40.0000	   0.1087	   1.8913	   0.8696	  14.5700	   9.6350	
   7.5000	  87.0000	  40.0000	   0.1630	   1.8913	   0.8696	  13.6375	   8.5175	
  10.0000	  87.0000	  40.0000	   0.2174	   1.8913	   0.8696	  12.8197	   7.5725	
  12.5000	  87.0000	  40.0000	   0.2717	   1.8913	   0.8696	  12.2887	   7.0587	
  15.0000	  87.0000	  40.0000	   0.3261	   1.8913	   0.8696	  11.8725	   6.7175	
  17.5000	  87.0000	  40.0000	   0.3804	   1.8913	   0.8696	  11.4563	   6.3763	
  20.0000	  87.0000	  40.0000	   0.4348	   1.8913	   0.8696	  11.0400	   6.0350	
 -20.0000	  87.0000	  42.5000	  -0.4348	   1.8913	   0.9239	  71.4364	  40.5532	
 -17.5000	  87.0000	  42.5000	  -0.3804	   1.8913	   0.9239	  60.9355	  36.2658	
 -15.0000	  87.0000	  42.5000	  -0.3261	   1.8913	   0.9239	  50.9378	  32.3447	
 -12.5000	  87.0000	  42.5000	  -0.2717	   1.8913	   0.9239	  40.9402	  28.4236	
 -10.0000	  87.0000	  42.5000	  -0.2174	   1.8913	   0.9239	  32.1495	  24.6569	
  -7.5000	  87.0000	  42.5000	  -0.1630	   1.8913	   0.9239	  27.4175	  21.4094	
  -5.0000	  87.0000	  42.5000	  -0.1087	   1.8913	   0.9239	  23.8925	  18.3163	
  -2.5000	  87.0000	  42.5000	  -0.0543	   1.8913	   0.9239	  20.3675	  15.2231	
   0.0000	  87.0000	  42.5000	   0.0000	   1.8913	   0.9239	  17.2803	  12.4773	
   2.5000	  87.0000	  42.5000	   0.0543	   1.8913	   0.9239	  15.8712	  11.0625	
   5.0000	  87.0000	  42.5000	   0.1087	   1.8913	   0.9239	  14.9000	   9.9950	
   7.5000	  87.0000	  42.5000	   0.1630	   1.8913	   0.9239	  13.9288	   8.9275	
  10.0000	  87.0000	  42.5000	   0.2174	   1.8913	   0.9239	  13.0463	   7.9711	
  12.5000	  87.0000	  42.5000	   0.2717	   1.8913	   0.9239	  12.5044	   7.4406	
  15.0000	  87.0000	  42.5000	   0.3261	   1.8913	   0.9239	  12.0512	   7.0212	
  17.5000	  87.0000	  42.5000	   0.3804	   1.8913	   0.9239	  11.5981	   6.6019	
  20.0000	  87.0000	  42.5000	   0.4348	   1.8913	   0.9239	  11.1450	   6.1825	
 -20.0000	  87.0000	  45.0000	  -0.4348	   1.8913	   0.9783	  61.4045	  39.1731	
 -17.5000	  87.0000	  45.0000	  -0.3804	   1.8913	   0.9783	  53.2114	  34.7851	
 -15.0000	  87.0000	  45.0000	  -0.3261	   1.8913	   0.9783	  45.1971	  30.7857	
 -12.5000	  87.0000	  45.0000	  -0.2717	   1.8913	   0.9783	  37.4611	  27.1433	
 -10.0000	  87.0000	  45.0000	  -0.2174	   1.8913	   0.9783	  30.0600	  23.6000	
  -7.5000	  87.0000	  45.0000	  -0.1630	   1.8913	   0.9783	  26.4296	  20.6476	
  -5.0000	  87.0000	  45.0000	  -0.1087	   1.8913	   0.9783	  23.1722	  17.8247	
  -2.5000	  87.0000	  45.0000	  -0.0543	   1.8913	   0.9783	  20.1356	  15.0797	
   0.0000	  87.0000	  45.0000	   0.0000	   1.8913	   0.9783	  17.2500	  12.3900	
   2.5000	  87.0000	  45.0000	   0.0543	   1.8913	   0.9783	  16.0074	  11.2814	
   5.0000	  87.0000	  45.0000	   0.1087	   1.8913	   0.9783	  14.9658	  10.2411	
   7.5000	  87.0000	  45.0000	   0.1630	   1.8913	   0.9783	  14.0450	   9.2529	
  10.0000	  87.0000	  45.0000	   0.2174	   1.8913	   0.9783	  13.2100	   8.3200	
  12.5000	  87.0000	  45.0000	   0.2717	   1.8913	   0.9783	  12.5996	   7.7730	
  15.0000	  87.0000	  45.0000	   0.3261	   1.8913	   0.9783	  12.1072	   7.3022	
  17.5000	  87.0000	  45.0000	   0.3804	   1.8913	   0.9783	  11.6710	   6.8419	
  20.0000	  87.0000	  45.0000	   0.4348	   1.8913	   0.9783	  11.2500	   6.3300	
 -20.0000	  87.0000	  47.5000	  -0.4348	   1.8913	   1.0326	  48.8621	  33.4020	
 -17.5000	  87.0000	  47.5000	  -0.3804	   1.8913	   1.0326	  43.2419	  30.2556	
 -15.0000	  87.0000	  47.5000	  -0.3261	   1.8913	   1.0326	  37.6137	  27.4087	
 -12.5000	  87.0000	  47.5000	  -0.2717	   1.8913	   1.0326	  31.9856	  24.5619	
 -10.0000	  87.0000	  47.5000	  -0.2174	   1.8913	   1.0326	  26.9303	  21.7976	
  -7.5000	  87.0000	  47.5000	  -0.1630	   1.8913	   1.0326	  23.8012	  19.3113	
  -5.0000	  87.0000	  47.5000	  -0.1087	   1.8913	   1.0326	  21.2450	  16.9075	
  -2.5000	  87.0000	  47.5000	  -0.0543	   1.8913	   1.0326	  18.6887	  14.5038	
   0.0000	  87.0000	  47.5000	   0.0000	   1.8913	   1.0326	  16.4198	  12.3494	
   2.5000	  87.0000	  47.5000	   0.0543	   1.8913	   1.0326	  15.2519	  11.1513	
   5.0000	  87.0000	  47.5000	   0.1087	   1.8913	   1.0326	  14.3712	  10.2025	
   7.5000	  87.0000	  47.5000	   0.1630	   1.8913	   1.0326	  13.4906	   9.2538	
  10.0000	  87.0000	  47.5000	   0.2174	   1.8913	   1.0326	  12.6964	   8.4009	
  12.5000	  87.0000	  47.5000	   0.2717	   1.8913	   1.0326	  12.2331	   7.9156	
  15.0000	  87.0000	  47.5000	   0.3261	   1.8913	   1.0326	  11.8563	   7.5262	
  17.5000	  87.0000	  47.5000	   0.3804	   1.8913	   1.0326	  11.4794	   7.1369	
  20.0000	  87.0000	  47.5000	   0.4348	   1.8913	   1.0326	  11.1025	   6.7475	
 -20.0000	  87.0000	  50.0000	  -0.4348	   1.8913	   1.0870	  36.3196	  27.6309	
 -17.5000	  87.0000	  50.0000	  -0.3804	   1.8913	   1.0870	  33.1831	  25.6050	
 -15.0000	  87.0000	  50.0000	  -0.3261	   1.8913	   1.0870	  29.6737	  23.6800	
 -12.5000	  87.0000	  50.0000	  -0.2717	   1.8913	   1.0870	  26.1644	  21.7550	
 -10.0000	  87.0000	  50.0000	  -0.2174	   1.8913	   1.0870	  23.0392	  19.8108	
  -7.5000	  87.0000	  50.0000	  -0.1630	   1.8913	   1.0870	  20.7450	  17.8250	
  -5.0000	  87.0000	  50.0000	  -0.1087	   1.8913	   1.0870	  18.8350	  15.8200	
  -2.5000	  87.0000	  50.0000	  -0.0543	   1.8913	   1.0870	  16.9250	  13.8150	
   0.0000	  87.0000	  50.0000	   0.0000	   1.8913	   1.0870	  15.2725	  12.0600	
   2.5000	  87.0000	  50.0000	   0.0543	   1.8913	   1.0870	  14.2637	  10.9300	
   5.0000	  87.0000	  50.0000	   0.1087	   1.8913	   1.0870	  13.5125	  10.0500	
   7.5000	  87.0000	  50.0000	   0.1630	   1.8913	   1.0870	  12.7613	   9.1700	
  10.0000	  87.0000	  50.0000	   0.2174	   1.8913	   1.0870	  12.1183	   8.4231	
  12.5000	  87.0000	  50.0000	   0.2717	   1.8913	   1.0870	  11.7462	   8.0087	
  15.0000	  87.0000	  50.0000	   0.3261	   1.8913	   1.0870	  11.4825	   7.7275	
  17.5000	  87.0000	  50.0000	   0.3804	   1.8913	   1.0870	  11.2188	   7.4463	
  20.0000	  87.0000	  50.0000	   0.4348	   1.8913	   1.0870	  10.9550	   7.1650	
 -20.0000	  87.0000	  52.5000	  -0.4348	   1.8913	   1.1413	  23.7771	  21.8599	
 -17.5000	  87.0000	  52.5000	  -0.3804	   1.8913	   1.1413	  23.1244	  20.9544	
 -15.0000	  87.0000	  52.5000	  -0.3261	   1.8913	   1.1413	  21.7337	  19.9513	
 -12.5000	  87.0000	  52.5000	  -0.2717	   1.8913	   1.1413	  20.3431	  18.9481	
 -10.0000	  87.0000	  52.5000	  -0.2174	   1.8913	   1.1413	  18.9762	  17.8325	
  -7.5000	  87.0000	  52.5000	  -0.1630	   1.8913	   1.1413	  17.6887	  16.3388	
  -5.0000	  87.0000	  52.5000	  -0.1087	   1.8913	   1.1413	  16.4250	  14.7325	
  -2.5000	  87.0000	  52.5000	  -0.0543	   1.8913	   1.1413	  15.1612	  13.1262	
   0.0000	  87.0000	  52.5000	   0.0000	   1.8913	   1.1413	  14.0075	  11.6563	
   2.5000	  87.0000	  52.5000	   0.0543	   1.8913	   1.1413	  13.2756	  10.7088	
   5.0000	  87.0000	  52.5000	   0.1087	   1.8913	   1.1413	  12.6537	   9.8975	
   7.5000	  87.0000	  52.5000	   0.1630	   1.8913	   1.1413	  12.0319	   9.0862	
  10.0000	  87.0000	  52.5000	   0.2174	   1.8913	   1.1413	  11.4908	   8.3844	
  12.5000	  87.0000	  52.5000	   0.2717	   1.8913	   1.1413	  11.2594	   8.1019	
  15.0000	  87.0000	  52.5000	   0.3261	   1.8913	   1.1413	  11.1087	   7.9287	
  17.5000	  87.0000	  52.5000	   0.3804	   1.8913	   1.1413	  10.9581	   7.7556	
  20.0000	  87.0000	  52.5000	   0.4348	   1.8913	   1.1413	  10.8075	   7.5825	
 -20.0000	  87.0000	  55.0000	  -0.4348	   1.8913	   1.1957	  11.2346	  16.0888	
 -17.5000	  87.0000	  55.0000	  -0.3804	   1.8913	   1.1957	  13.3323	  16.3749	
 -15.0000	  87.0000	  55.0000	  -0.3261	   1.8913	   1.1957	  14.5048	  16.3938	
 -12.5000	  87.0000	  55.0000	  -0.2717	   1.8913	   1.1957	  14.9010	  16.2083	
 -10.0000	  87.0000	  55.0000	  -0.2174	   1.8913	   1.1957	  15.2500	  16.0600	
  -7.5000	  87.0000	  55.0000	  -0.1630	   1.8913	   1.1957	  14.6970	  14.8069	
  -5.0000	  87.0000	  55.0000	  -0.1087	   1.8913	   1.1957	  14.0050	  13.5678	
  -2.5000	  87.0000	  55.0000	  -0.0543	   1.8913	   1.1957	  13.3176	  12.3640	
   0.0000	  87.0000	  55.0000	   0.0000	   1.8913	   1.1957	  12.7800	  11.2300	
   2.5000	  87.0000	  55.0000	   0.0543	   1.8913	   1.1957	  12.1467	  10.4194	
   5.0000	  87.0000	  55.0000	   0.1087	   1.8913	   1.1957	  11.6272	   9.6817	
   7.5000	  87.0000	  55.0000	   0.1630	   1.8913	   1.1957	  11.1844	   8.9729	
  10.0000	  87.0000	  55.0000	   0.2174	   1.8913	   1.1957	  10.8100	   8.2600	
  12.5000	  87.0000	  55.0000	   0.2717	   1.8913	   1.1957	  10.6488	   8.1581	
  15.0000	  87.0000	  55.0000	   0.3261	   1.8913	   1.1957	  10.5525	   8.0478	
  17.5000	  87.0000	  55.0000	   0.3804	   1.8913	   1.1957	  10.5397	   7.9750	
  20.0000	  87.0000	  55.0000	   0.4348	   1.8913	   1.1957	  10.6600	   8.0000	
 -20.0000	  87.0000	  57.5000	  -0.4348	   1.8913	   1.2500	   8.7270	  13.2316	
 -17.5000	  87.0000	  57.5000	  -0.3804	   1.8913	   1.2500	  10.2520	  13.5869	
 -15.0000	  87.0000	  57.5000	  -0.3261	   1.8913	   1.2500	  10.9497	  13.7212	
 -12.5000	  87.0000	  57.5000	  -0.2717	   1.8913	   1.2500	  11.6473	  13.8556	
 -10.0000	  87.0000	  57.5000	  -0.2174	   1.8913	   1.2500	  12.1417	  13.7990	
  -7.5000	  87.0000	  57.5000	  -0.1630	   1.8913	   1.2500	  11.9525	  13.1000	
  -5.0000	  87.0000	  57.5000	  -0.1087	   1.8913	   1.2500	  11.5600	  12.2100	