Variables = "x [mm]"	"y [mm]"	"z [mm]"	"x/B"	"y/B"	"z/B"	"C*"	"C*std"	
Zone T = "West_z=7" I=17 J=129 F=POINT
 -20.0000	-155.0000	   7.5000	  -0.4348	  -3.3696	   0.1630	   2.9500	  12.7000	
 -17.5000	-155.0000	   7.5000	  -0.3804	  -3.3696	   0.1630	   5.1925	  17.4325	
 -15.0000	-155.0000	   7.5000	  -0.3261	  -3.3696	   0.1630	   7.4350	  22.1650	
 -12.5000	-155.0000	   7.5000	  -0.2717	  -3.3696	   0.1630	   9.6775	  26.8975	
 -10.0000	-155.0000	   7.5000	  -0.2174	  -3.3696	   0.1630	  11.9200	  31.6300	
  -7.5000	-155.0000	   7.5000	  -0.1630	  -3.3696	   0.1630	  12.2675	  31.1975	
  -5.0000	-155.0000	   7.5000	  -0.1087	  -3.3696	   0.1630	  12.6150	  30.7650	
  -2.5000	-155.0000	   7.5000	  -0.0543	  -3.3696	   0.1630	  12.9625	  30.3325	
   0.0000	-155.0000	   7.5000	   0.0000	  -3.3696	   0.1630	  13.3100	  29.9000	
   2.5000	-155.0000	   7.5000	   0.0543	  -3.3696	   0.1630	  11.7575	  25.8550	
   5.0000	-155.0000	   7.5000	   0.1087	  -3.3696	   0.1630	  10.2050	  21.8100	
   7.5000	-155.0000	   7.5000	   0.1630	  -3.3696	   0.1630	   8.6525	  17.7650	
  10.0000	-155.0000	   7.5000	   0.2174	  -3.3696	   0.1630	   7.1000	  13.7200	
  12.5000	-155.0000	   7.5000	   0.2717	  -3.3696	   0.1630	   6.3150	  12.2775	
  15.0000	-155.0000	   7.5000	   0.3261	  -3.3696	   0.1630	   5.5300	  10.8350	
  17.5000	-155.0000	   7.5000	   0.3804	  -3.3696	   0.1630	   4.7450	   9.3925	
  20.0000	-155.0000	   7.5000	   0.4348	  -3.3696	   0.1630	   3.9600	   7.9500	
 -20.0000	-152.5000	   7.5000	  -0.4348	  -3.3152	   0.1630	   9.0093	  17.8868	
 -17.5000	-152.5000	   7.5000	  -0.3804	  -3.3152	   0.1630	  10.0859	  21.6845	
 -15.0000	-152.5000	   7.5000	  -0.3261	  -3.3152	   0.1630	  11.1625	  25.4822	
 -12.5000	-152.5000	   7.5000	  -0.2717	  -3.3152	   0.1630	  12.2391	  29.2799	
 -10.0000	-152.5000	   7.5000	  -0.2174	  -3.3152	   0.1630	  13.0304	  31.8870	
  -7.5000	-152.5000	   7.5000	  -0.1630	  -3.3152	   0.1630	  13.2534	  32.1220	
  -5.0000	-152.5000	   7.5000	  -0.1087	  -3.3152	   0.1630	  13.1910	  31.1663	
  -2.5000	-152.5000	   7.5000	  -0.0543	  -3.3152	   0.1630	  13.1287	  30.2107	
   0.0000	-152.5000	   7.5000	   0.0000	  -3.3152	   0.1630	  12.7095	  28.5175	
   2.5000	-152.5000	   7.5000	   0.0543	  -3.3152	   0.1630	  11.5792	  25.3551	
   5.0000	-152.5000	   7.5000	   0.1087	  -3.3152	   0.1630	  10.0921	  21.4553	
   7.5000	-152.5000	   7.5000	   0.1630	  -3.3152	   0.1630	   8.6050	  17.5554	
  10.0000	-152.5000	   7.5000	   0.2174	  -3.3152	   0.1630	   7.2916	  14.2946	
  12.5000	-152.5000	   7.5000	   0.2717	  -3.3152	   0.1630	   6.3244	  12.3071	
  15.0000	-152.5000	   7.5000	   0.3261	  -3.3152	   0.1630	   5.5309	  10.9586	
  17.5000	-152.5000	   7.5000	   0.3804	  -3.3152	   0.1630	   4.7374	   9.6102	
  20.0000	-152.5000	   7.5000	   0.4348	  -3.3152	   0.1630	   3.9439	   8.2617	
 -20.0000	-150.0000	   7.5000	  -0.4348	  -3.2609	   0.1630	  15.0687	  23.0736	
 -17.5000	-150.0000	   7.5000	  -0.3804	  -3.2609	   0.1630	  14.9794	  25.9365	
 -15.0000	-150.0000	   7.5000	  -0.3261	  -3.2609	   0.1630	  14.8900	  28.7995	
 -12.5000	-150.0000	   7.5000	  -0.2717	  -3.2609	   0.1630	  14.7900	  31.5411	
 -10.0000	-150.0000	   7.5000	  -0.2174	  -3.2609	   0.1630	  14.5713	  32.9371	
  -7.5000	-150.0000	   7.5000	  -0.1630	  -3.2609	   0.1630	  14.2285	  32.9252	
  -5.0000	-150.0000	   7.5000	  -0.1087	  -3.2609	   0.1630	  13.7670	  31.5677	
  -2.5000	-150.0000	   7.5000	  -0.0543	  -3.2609	   0.1630	  13.2683	  30.0253	
   0.0000	-150.0000	   7.5000	   0.0000	  -3.2609	   0.1630	  12.4753	  27.7775	
   2.5000	-150.0000	   7.5000	   0.0543	  -3.2609	   0.1630	  11.3744	  24.7917	
   5.0000	-150.0000	   7.5000	   0.1087	  -3.2609	   0.1630	   9.9793	  21.1005	
   7.5000	-150.0000	   7.5000	   0.1630	  -3.2609	   0.1630	   8.5749	  17.4156	
  10.0000	-150.0000	   7.5000	   0.2174	  -3.2609	   0.1630	   7.3625	  14.5056	
  12.5000	-150.0000	   7.5000	   0.2717	  -3.2609	   0.1630	   6.3511	  12.4065	
  15.0000	-150.0000	   7.5000	   0.3261	  -3.2609	   0.1630	   5.5318	  11.0822	
  17.5000	-150.0000	   7.5000	   0.3804	  -3.2609	   0.1630	   4.7298	   9.8279	
  20.0000	-150.0000	   7.5000	   0.4348	  -3.2609	   0.1630	   3.9278	   8.5735	
 -20.0000	-147.5000	   7.5000	  -0.4348	  -3.2065	   0.1630	  21.1280	  28.2604	
 -17.5000	-147.5000	   7.5000	  -0.3804	  -3.2065	   0.1630	  19.8728	  30.1886	
 -15.0000	-147.5000	   7.5000	  -0.3261	  -3.2065	   0.1630	  18.6176	  32.1167	
 -12.5000	-147.5000	   7.5000	  -0.2717	  -3.2065	   0.1630	  17.3775	  33.8847	
 -10.0000	-147.5000	   7.5000	  -0.2174	  -3.2065	   0.1630	  16.2525	  34.4413	
  -7.5000	-147.5000	   7.5000	  -0.1630	  -3.2065	   0.1630	  15.2403	  33.8109	
  -5.0000	-147.5000	   7.5000	  -0.1087	  -3.2065	   0.1630	  14.3430	  31.9690	
  -2.5000	-147.5000	   7.5000	  -0.0543	  -3.2065	   0.1630	  13.4417	  29.9015	
   0.0000	-147.5000	   7.5000	   0.0000	  -3.2065	   0.1630	  12.3942	  27.3385	
   2.5000	-147.5000	   7.5000	   0.0543	  -3.2065	   0.1630	  11.2034	  24.2899	
   5.0000	-147.5000	   7.5000	   0.1087	  -3.2065	   0.1630	   9.8664	  20.7458	
   7.5000	-147.5000	   7.5000	   0.1630	  -3.2065	   0.1630	   8.5323	  17.2359	
  10.0000	-147.5000	   7.5000	   0.2174	  -3.2065	   0.1630	   7.3664	  14.4810	
  12.5000	-147.5000	   7.5000	   0.2717	  -3.2065	   0.1630	   6.3655	  12.4660	
  15.0000	-147.5000	   7.5000	   0.3261	  -3.2065	   0.1630	   5.5327	  11.2059	
  17.5000	-147.5000	   7.5000	   0.3804	  -3.2065	   0.1630	   4.7222	  10.0456	
  20.0000	-147.5000	   7.5000	   0.4348	  -3.2065	   0.1630	   3.9116	   8.8852	
 -20.0000	-145.0000	   7.5000	  -0.4348	  -3.1522	   0.1630	  27.1874	  33.4473	
 -17.5000	-145.0000	   7.5000	  -0.3804	  -3.1522	   0.1630	  24.7662	  34.4406	
 -15.0000	-145.0000	   7.5000	  -0.3261	  -3.1522	   0.1630	  22.3451	  35.4339	
 -12.5000	-145.0000	   7.5000	  -0.2717	  -3.1522	   0.1630	  19.9378	  36.3841	
 -10.0000	-145.0000	   7.5000	  -0.2174	  -3.1522	   0.1630	  17.8756	  36.2591	
  -7.5000	-145.0000	   7.5000	  -0.1630	  -3.1522	   0.1630	  16.2248	  34.8523	
  -5.0000	-145.0000	   7.5000	  -0.1087	  -3.1522	   0.1630	  14.9191	  32.3703	
  -2.5000	-145.0000	   7.5000	  -0.0543	  -3.1522	   0.1630	  13.6272	  29.8336	
   0.0000	-145.0000	   7.5000	   0.0000	  -3.1522	   0.1630	  12.3357	  27.0099	
   2.5000	-145.0000	   7.5000	   0.0543	  -3.1522	   0.1630	  11.0444	  23.8440	
   5.0000	-145.0000	   7.5000	   0.1087	  -3.1522	   0.1630	   9.7535	  20.3910	
   7.5000	-145.0000	   7.5000	   0.1630	  -3.1522	   0.1630	   8.4684	  16.9560	
  10.0000	-145.0000	   7.5000	   0.2174	  -3.1522	   0.1630	   7.3274	  14.2537	
  12.5000	-145.0000	   7.5000	   0.2717	  -3.1522	   0.1630	   6.3584	  12.4252	
  15.0000	-145.0000	   7.5000	   0.3261	  -3.1522	   0.1630	   5.5336	  11.3295	
  17.5000	-145.0000	   7.5000	   0.3804	  -3.1522	   0.1630	   4.7145	  10.2632	
  20.0000	-145.0000	   7.5000	   0.4348	  -3.1522	   0.1630	   3.8955	   9.1970	
 -20.0000	-142.5000	   7.5000	  -0.4348	  -3.0978	   0.1630	  33.2467	  38.6341	
 -17.5000	-142.5000	   7.5000	  -0.3804	  -3.0978	   0.1630	  29.6597	  38.6926	
 -15.0000	-142.5000	   7.5000	  -0.3261	  -3.0978	   0.1630	  26.0725	  38.7501	
 -12.5000	-142.5000	   7.5000	  -0.2717	  -3.0978	   0.1630	  22.4855	  38.8097	
 -10.0000	-142.5000	   7.5000	  -0.2174	  -3.0978	   0.1630	  19.2125	  38.3507	
  -7.5000	-142.5000	   7.5000	  -0.1630	  -3.0978	   0.1630	  17.1968	  35.8199	
  -5.0000	-142.5000	   7.5000	  -0.1087	  -3.0978	   0.1630	  15.4970	  32.7739	
  -2.5000	-142.5000	   7.5000	  -0.0543	  -3.0978	   0.1630	  13.7934	  29.7233	
   0.0000	-142.5000	   7.5000	   0.0000	  -3.0978	   0.1630	  12.1710	  26.6299	
   2.5000	-142.5000	   7.5000	   0.0543	  -3.0978	   0.1630	  10.8662	  23.3557	
   5.0000	-142.5000	   7.5000	   0.1087	  -3.0978	   0.1630	   9.6407	  20.0375	
   7.5000	-142.5000	   7.5000	   0.1630	  -3.0978	   0.1630	   8.4151	  16.7169	
  10.0000	-142.5000	   7.5000	   0.2174	  -3.0978	   0.1630	   7.2559	  13.7885	
  12.5000	-142.5000	   7.5000	   0.2717	  -3.0978	   0.1630	   6.3620	  12.4253	
  15.0000	-142.5000	   7.5000	   0.3261	  -3.0978	   0.1630	   5.5341	  11.4525	
  17.5000	-142.5000	   7.5000	   0.3804	  -3.0978	   0.1630	   4.7069	  10.4809	
  20.0000	-142.5000	   7.5000	   0.4348	  -3.0978	   0.1630	   3.8794	   9.5087	
 -20.0000	-140.0000	   7.5000	  -0.4348	  -3.0435	   0.1630	  38.4812	  42.7373	
 -17.5000	-140.0000	   7.5000	  -0.3804	  -3.0435	   0.1630	  34.1269	  42.2726	
 -15.0000	-140.0000	   7.5000	  -0.3261	  -3.0435	   0.1630	  29.7780	  41.8051	
 -12.5000	-140.0000	   7.5000	  -0.2717	  -3.0435	   0.1630	  25.4310	  41.3601	
 -10.0000	-140.0000	   7.5000	  -0.2174	  -3.0435	   0.1630	  21.3400	  40.5032	
  -7.5000	-140.0000	   7.5000	  -0.1630	  -3.0435	   0.1630	  18.8097	  37.3135	
  -5.0000	-140.0000	   7.5000	  -0.1087	  -3.0435	   0.1630	  16.5570	  33.7478	
  -2.5000	-140.0000	   7.5000	  -0.0543	  -3.0435	   0.1630	  14.2628	  30.1328	
   0.0000	-140.0000	   7.5000	   0.0000	  -3.0435	   0.1630	  12.1207	  26.5782	
   2.5000	-140.0000	   7.5000	   0.0543	  -3.0435	   0.1630	  10.7635	  23.2658	
   5.0000	-140.0000	   7.5000	   0.1087	  -3.0435	   0.1630	   9.5380	  20.0029	
   7.5000	-140.0000	   7.5000	   0.1630	  -3.0435	   0.1630	   8.3117	  16.7124	
  10.0000	-140.0000	   7.5000	   0.2174	  -3.0435	   0.1630	   7.1381	  13.7221	
  12.5000	-140.0000	   7.5000	   0.2717	  -3.0435	   0.1630	   6.2660	  12.4284	
  15.0000	-140.0000	   7.5000	   0.3261	  -3.0435	   0.1630	   5.4422	  11.4141	
  17.5000	-140.0000	   7.5000	   0.3804	  -3.0435	   0.1630	   4.6264	  10.4137	
  20.0000	-140.0000	   7.5000	   0.4348	  -3.0435	   0.1630	   3.8070	   9.4095	
 -20.0000	-137.5000	   7.5000	  -0.4348	  -2.9891	   0.1630	  42.5697	  45.3352	
 -17.5000	-137.5000	   7.5000	  -0.3804	  -2.9891	   0.1630	  38.0131	  44.9366	
 -15.0000	-137.5000	   7.5000	  -0.3261	  -2.9891	   0.1630	  33.4565	  44.5380	
 -12.5000	-137.5000	   7.5000	  -0.2717	  -2.9891	   0.1630	  28.9091	  44.1160	
 -10.0000	-137.5000	   7.5000	  -0.2174	  -2.9891	   0.1630	  24.8077	  42.5694	
  -7.5000	-137.5000	   7.5000	  -0.1630	  -2.9891	   0.1630	  21.2866	  39.5592	
  -5.0000	-137.5000	   7.5000	  -0.1087	  -2.9891	   0.1630	  18.2114	  35.4245	
  -2.5000	-137.5000	   7.5000	  -0.0543	  -2.9891	   0.1630	  15.1564	  31.2713	
   0.0000	-137.5000	   7.5000	   0.0000	  -2.9891	   0.1630	  12.6249	  27.3527	
   2.5000	-137.5000	   7.5000	   0.0543	  -2.9891	   0.1630	  10.7747	  23.7396	
   5.0000	-137.5000	   7.5000	   0.1087	  -2.9891	   0.1630	   9.4479	  20.3612	
   7.5000	-137.5000	   7.5000	   0.1630	  -2.9891	   0.1630	   8.1354	  17.0011	
  10.0000	-137.5000	   7.5000	   0.2174	  -2.9891	   0.1630	   6.9801	  14.2856	
  12.5000	-137.5000	   7.5000	   0.2717	  -2.9891	   0.1630	   6.0296	  12.4089	
  15.0000	-137.5000	   7.5000	   0.3261	  -2.9891	   0.1630	   5.2364	  11.1768	
  17.5000	-137.5000	   7.5000	   0.3804	  -2.9891	   0.1630	   4.4464	   9.9581	
  20.0000	-137.5000	   7.5000	   0.4348	  -2.9891	   0.1630	   3.6565	   8.7395	
 -20.0000	-135.0000	   7.5000	  -0.4348	  -2.9348	   0.1630	  46.6583	  47.9331	
 -17.5000	-135.0000	   7.5000	  -0.3804	  -2.9348	   0.1630	  41.8961	  47.5954	
 -15.0000	-135.0000	   7.5000	  -0.3261	  -2.9348	   0.1630	  37.1338	  47.2577	
 -12.5000	-135.0000	   7.5000	  -0.2717	  -2.9348	   0.1630	  32.4064	  46.7508	
 -10.0000	-135.0000	   7.5000	  -0.2174	  -2.9348	   0.1630	  27.9577	  44.8891	
  -7.5000	-135.0000	   7.5000	  -0.1630	  -2.9348	   0.1630	  23.7846	  41.6870	
  -5.0000	-135.0000	   7.5000	  -0.1087	  -2.9348	   0.1630	  19.8902	  37.1302	
  -2.5000	-135.0000	   7.5000	  -0.0543	  -2.9348	   0.1630	  16.1252	  32.4525	
   0.0000	-135.0000	   7.5000	   0.0000	  -2.9348	   0.1630	  13.1176	  28.1622	
   2.5000	-135.0000	   7.5000	   0.0543	  -2.9348	   0.1630	  10.8593	  24.2552	
   5.0000	-135.0000	   7.5000	   0.1087	  -2.9348	   0.1630	   9.3583	  20.7356	
   7.5000	-135.0000	   7.5000	   0.1630	  -2.9348	   0.1630	   7.9770	  17.3432	
  10.0000	-135.0000	   7.5000	   0.2174	  -2.9348	   0.1630	   6.7951	  14.5805	
  12.5000	-135.0000	   7.5000	   0.2717	  -2.9348	   0.1630	   5.8107	  12.4410	
  15.0000	-135.0000	   7.5000	   0.3261	  -2.9348	   0.1630	   5.0259	  10.9314	
  17.5000	-135.0000	   7.5000	   0.3804	  -2.9348	   0.1630	   4.2659	   9.5004	
  20.0000	-135.0000	   7.5000	   0.4348	  -2.9348	   0.1630	   3.5060	   8.0694	
 -20.0000	-132.5000	   7.5000	  -0.4348	  -2.8804	   0.1630	  50.7468	  50.5310	
 -17.5000	-132.5000	   7.5000	  -0.3804	  -2.8804	   0.1630	  45.7790	  50.2542	
 -15.0000	-132.5000	   7.5000	  -0.3261	  -2.8804	   0.1630	  40.8112	  49.9775	
 -12.5000	-132.5000	   7.5000	  -0.2717	  -2.8804	   0.1630	  35.8537	  49.5358	
 -10.0000	-132.5000	   7.5000	  -0.2174	  -2.8804	   0.1630	  30.9936	  47.5405	
  -7.5000	-132.5000	   7.5000	  -0.1630	  -2.8804	   0.1630	  26.2326	  43.9649	
  -5.0000	-132.5000	   7.5000	  -0.1087	  -2.8804	   0.1630	  21.5689	  38.8358	
  -2.5000	-132.5000	   7.5000	  -0.0543	  -2.8804	   0.1630	  17.0194	  33.5985	
   0.0000	-132.5000	   7.5000	   0.0000	  -2.8804	   0.1630	  13.4473	  28.8953	
   2.5000	-132.5000	   7.5000	   0.0543	  -2.8804	   0.1630	  10.8693	  24.7356	
   5.0000	-132.5000	   7.5000	   0.1087	  -2.8804	   0.1630	   9.2688	  21.1101	
   7.5000	-132.5000	   7.5000	   0.1630	  -2.8804	   0.1630	   7.7972	  17.6046	
  10.0000	-132.5000	   7.5000	   0.2174	  -2.8804	   0.1630	   6.5630	  14.6953	
  12.5000	-132.5000	   7.5000	   0.2717	  -2.8804	   0.1630	   5.5705	  12.3925	
  15.0000	-132.5000	   7.5000	   0.3261	  -2.8804	   0.1630	   4.8153	  10.6859	
  17.5000	-132.5000	   7.5000	   0.3804	  -2.8804	   0.1630	   4.0854	   9.0426	
  20.0000	-132.5000	   7.5000	   0.4348	  -2.8804	   0.1630	   3.3555	   7.3993	
 -20.0000	-130.0000	   7.5000	  -0.4348	  -2.8261	   0.1630	  54.8354	  53.1289	
 -17.5000	-130.0000	   7.5000	  -0.3804	  -2.8261	   0.1630	  49.6619	  52.9130	
 -15.0000	-130.0000	   7.5000	  -0.3261	  -2.8261	   0.1630	  44.4885	  52.6972	
 -12.5000	-130.0000	   7.5000	  -0.2717	  -2.8261	   0.1630	  39.3151	  52.4804	
 -10.0000	-130.0000	   7.5000	  -0.2174	  -2.8261	   0.1630	  34.0660	  50.7031	
  -7.5000	-130.0000	   7.5000	  -0.1630	  -2.8261	   0.1630	  28.6947	  46.4025	
  -5.0000	-130.0000	   7.5000	  -0.1087	  -2.8261	   0.1630	  23.2477	  40.5415	
  -2.5000	-130.0000	   7.5000	  -0.0543	  -2.8261	   0.1630	  17.8014	  34.6798	
   0.0000	-130.0000	   7.5000	   0.0000	  -2.8261	   0.1630	  13.4218	  29.4250	
   2.5000	-130.0000	   7.5000	   0.0543	  -2.8261	   0.1630	  10.7671	  25.1514	
   5.0000	-130.0000	   7.5000	   0.1087	  -2.8261	   0.1630	   9.1792	  21.4845	
   7.5000	-130.0000	   7.5000	   0.1630	  -2.8261	   0.1630	   7.5921	  17.8184	
  10.0000	-130.0000	   7.5000	   0.2174	  -2.8261	   0.1630	   6.2502	  14.6527	
  12.5000	-130.0000	   7.5000	   0.2717	  -2.8261	   0.1630	   5.3049	  12.2964	
  15.0000	-130.0000	   7.5000	   0.3261	  -2.8261	   0.1630	   4.6048	  10.4404	
  17.5000	-130.0000	   7.5000	   0.3804	  -2.8261	   0.1630	   3.9049	   8.5848	
  20.0000	-130.0000	   7.5000	   0.4348	  -2.8261	   0.1630	   3.2050	   6.7292	
 -20.0000	-127.5000	   7.5000	  -0.4348	  -2.7717	   0.1630	  58.9239	  55.7267	
 -17.5000	-127.5000	   7.5000	  -0.3804	  -2.7717	   0.1630	  53.4563	  55.4298	
 -15.0000	-127.5000	   7.5000	  -0.3261	  -2.7717	   0.1630	  47.9515	  55.1655	
 -12.5000	-127.5000	   7.5000	  -0.2717	  -2.7717	   0.1630	  42.6118	  55.0947	
 -10.0000	-127.5000	   7.5000	  -0.2174	  -2.7717	   0.1630	  37.3616	  54.7701	
  -7.5000	-127.5000	   7.5000	  -0.1630	  -2.7717	   0.1630	  30.9987	  48.5241	
  -5.0000	-127.5000	   7.5000	  -0.1087	  -2.7717	   0.1630	  24.7335	  42.0422	
  -2.5000	-127.5000	   7.5000	  -0.0543	  -2.7717	   0.1630	  18.6170	  35.7180	
   0.0000	-127.5000	   7.5000	   0.0000	  -2.7717	   0.1630	  12.6901	  29.5303	
   2.5000	-127.5000	   7.5000	   0.0543	  -2.7717	   0.1630	  10.7559	  25.5545	
   5.0000	-127.5000	   7.5000	   0.1087	  -2.7717	   0.1630	   9.0831	  21.7534	
   7.5000	-127.5000	   7.5000	   0.1630	  -2.7717	   0.1630	   7.4154	  18.0336	
  10.0000	-127.5000	   7.5000	   0.2174	  -2.7717	   0.1630	   5.7882	  14.4219	
  12.5000	-127.5000	   7.5000	   0.2717	  -2.7717	   0.1630	   5.0756	  12.2364	
  15.0000	-127.5000	   7.5000	   0.3261	  -2.7717	   0.1630	   4.4134	  10.2025	
  17.5000	-127.5000	   7.5000	   0.3804	  -2.7717	   0.1630	   3.7366	   8.1628	
  20.0000	-127.5000	   7.5000	   0.4348	  -2.7717	   0.1630	   3.0545	   6.0592	
 -20.0000	-125.0000	   7.5000	  -0.4348	  -2.7174	   0.1630	  62.3720	  56.4949	
 -17.5000	-125.0000	   7.5000	  -0.3804	  -2.7174	   0.1630	  56.1759	  56.2228	
 -15.0000	-125.0000	   7.5000	  -0.3261	  -2.7174	   0.1630	  49.9798	  55.9507	
 -12.5000	-125.0000	   7.5000	  -0.2717	  -2.7174	   0.1630	  43.7837	  55.6786	
 -10.0000	-125.0000	   7.5000	  -0.2174	  -2.7174	   0.1630	  37.5580	  54.0054	
  -7.5000	-125.0000	   7.5000	  -0.1630	  -2.7174	   0.1630	  31.2577	  48.7888	
  -5.0000	-125.0000	   7.5000	  -0.1087	  -2.7174	   0.1630	  24.9278	  42.1711	
  -2.5000	-125.0000	   7.5000	  -0.0543	  -2.7174	   0.1630	  18.5979	  35.5533	
   0.0000	-125.0000	   7.5000	   0.0000	  -2.7174	   0.1630	  13.2987	  29.5556	
   2.5000	-125.0000	   7.5000	   0.0543	  -2.7174	   0.1630	  10.6059	  25.1256	
   5.0000	-125.0000	   7.5000	   0.1087	  -2.7174	   0.1630	   8.9438	  21.3156	
   7.5000	-125.0000	   7.5000	   0.1630	  -2.7174	   0.1630	   7.2816	  17.5056	
  10.0000	-125.0000	   7.5000	   0.2174	  -2.7174	   0.1630	   5.8464	  14.1305	
  12.5000	-125.0000	   7.5000	   0.2717	  -2.7174	   0.1630	   4.9849	  11.8552	
  15.0000	-125.0000	   7.5000	   0.3261	  -2.7174	   0.1630	   4.3503	  10.0148	
  17.5000	-125.0000	   7.5000	   0.3804	  -2.7174	   0.1630	   3.7156	   8.1744	
  20.0000	-125.0000	   7.5000	   0.4348	  -2.7174	   0.1630	   3.0810	   6.3339	
 -20.0000	-122.5000	   7.5000	  -0.4348	  -2.6630	   0.1630	  65.6955	  56.9070	
 -17.5000	-122.5000	   7.5000	  -0.3804	  -2.6630	   0.1630	  58.5633	  56.4831	
 -15.0000	-122.5000	   7.5000	  -0.3261	  -2.6630	   0.1630	  51.4310	  56.0591	
 -12.5000	-122.5000	   7.5000	  -0.2717	  -2.6630	   0.1630	  44.3176	  55.4953	
 -10.0000	-122.5000	   7.5000	  -0.2174	  -2.6630	   0.1630	  37.4674	  52.9793	
  -7.5000	-122.5000	   7.5000	  -0.1630	  -2.6630	   0.1630	  30.9034	  48.3398	
  -5.0000	-122.5000	   7.5000	  -0.1087	  -2.6630	   0.1630	  24.6026	  41.7482	
  -2.5000	-122.5000	   7.5000	  -0.0543	  -2.6630	   0.1630	  18.4239	  35.0807	
   0.0000	-122.5000	   7.5000	   0.0000	  -2.6630	   0.1630	  13.6863	  29.3063	
   2.5000	-122.5000	   7.5000	   0.0543	  -2.6630	   0.1630	  10.5161	  24.5034	
   5.0000	-122.5000	   7.5000	   0.1087	  -2.6630	   0.1630	   8.7870	  20.5936	
   7.5000	-122.5000	   7.5000	   0.1630	  -2.6630	   0.1630	   7.1839	  16.7992	
  10.0000	-122.5000	   7.5000	   0.2174	  -2.6630	   0.1630	   5.8989	  13.7223	
  12.5000	-122.5000	   7.5000	   0.2717	  -2.6630	   0.1630	   4.9597	  11.4260	
  15.0000	-122.5000	   7.5000	   0.3261	  -2.6630	   0.1630	   4.3386	   9.8473	
  17.5000	-122.5000	   7.5000	   0.3804	  -2.6630	   0.1630	   3.7403	   8.3199	
  20.0000	-122.5000	   7.5000	   0.4348	  -2.6630	   0.1630	   3.1419	   6.7926	
 -20.0000	-120.0000	   7.5000	  -0.4348	  -2.6087	   0.1630	  69.0190	  57.3191	
 -17.5000	-120.0000	   7.5000	  -0.3804	  -2.6087	   0.1630	  60.9506	  56.7433	
 -15.0000	-120.0000	   7.5000	  -0.3261	  -2.6087	   0.1630	  52.8823	  56.1675	
 -12.5000	-120.0000	   7.5000	  -0.2717	  -2.6087	   0.1630	  44.8904	  55.3303	
 -10.0000	-120.0000	   7.5000	  -0.2174	  -2.6087	   0.1630	  37.4634	  52.5621	
  -7.5000	-120.0000	   7.5000	  -0.1630	  -2.6087	   0.1630	  30.5880	  47.9092	
  -5.0000	-120.0000	   7.5000	  -0.1087	  -2.6087	   0.1630	  24.2774	  41.3254	
  -2.5000	-120.0000	   7.5000	  -0.0543	  -2.6087	   0.1630	  18.2371	  34.6037	
   0.0000	-120.0000	   7.5000	   0.0000	  -2.6087	   0.1630	  13.6272	  28.7948	
   2.5000	-120.0000	   7.5000	   0.0543	  -2.6087	   0.1630	  10.4135	  23.8768	
   5.0000	-120.0000	   7.5000	   0.1087	  -2.6087	   0.1630	   8.6302	  19.8715	
   7.5000	-120.0000	   7.5000	   0.1630	  -2.6087	   0.1630	   7.0835	  16.1011	
  10.0000	-120.0000	   7.5000	   0.2174	  -2.6087	   0.1630	   5.8533	  13.1522	
  12.5000	-120.0000	   7.5000	   0.2717	  -2.6087	   0.1630	   4.9319	  11.0052	
  15.0000	-120.0000	   7.5000	   0.3261	  -2.6087	   0.1630	   4.3270	   9.6797	
  17.5000	-120.0000	   7.5000	   0.3804	  -2.6087	   0.1630	   3.7649	   8.4655	
  20.0000	-120.0000	   7.5000	   0.4348	  -2.6087	   0.1630	   3.2028	   7.2513	
 -20.0000	-117.5000	   7.5000	  -0.4348	  -2.5543	   0.1630	  72.3425	  57.7312	
 -17.5000	-117.5000	   7.5000	  -0.3804	  -2.5543	   0.1630	  63.3380	  57.0035	
 -15.0000	-117.5000	   7.5000	  -0.3261	  -2.5543	   0.1630	  54.3335	  56.2759	
 -12.5000	-117.5000	   7.5000	  -0.2717	  -2.5543	   0.1630	  45.3815	  55.4321	
 -10.0000	-117.5000	   7.5000	  -0.2174	  -2.5543	   0.1630	  37.2995	  52.6648	
  -7.5000	-117.5000	   7.5000	  -0.1630	  -2.5543	   0.1630	  30.1909	  47.7454	
  -5.0000	-117.5000	   7.5000	  -0.1087	  -2.5543	   0.1630	  23.9522	  40.9026	
  -2.5000	-117.5000	   7.5000	  -0.0543	  -2.5543	   0.1630	  17.8526	  34.0003	
   0.0000	-117.5000	   7.5000	   0.0000	  -2.5543	   0.1630	  13.1828	  28.0368	
   2.5000	-117.5000	   7.5000	   0.0543	  -2.5543	   0.1630	  10.1132	  23.1237	
   5.0000	-117.5000	   7.5000	   0.1087	  -2.5543	   0.1630	   8.4735	  19.1495	
   7.5000	-117.5000	   7.5000	   0.1630	  -2.5543	   0.1630	   6.9393	  15.2883	
  10.0000	-117.5000	   7.5000	   0.2174	  -2.5543	   0.1630	   5.7224	  12.3581	
  12.5000	-117.5000	   7.5000	   0.2717	  -2.5543	   0.1630	   4.8603	  10.4696	
  15.0000	-117.5000	   7.5000	   0.3261	  -2.5543	   0.1630	   4.3153	   9.5122	
  17.5000	-117.5000	   7.5000	   0.3804	  -2.5543	   0.1630	   3.7895	   8.6111	
  20.0000	-117.5000	   7.5000	   0.4348	  -2.5543	   0.1630	   3.2637	   7.7099	
 -20.0000	-115.0000	   7.5000	  -0.4348	  -2.5000	   0.1630	  75.6660	  58.1433	
 -17.5000	-115.0000	   7.5000	  -0.3804	  -2.5000	   0.1630	  65.7254	  57.2638	
 -15.0000	-115.0000	   7.5000	  -0.3261	  -2.5000	   0.1630	  55.7847	  56.3843	
 -12.5000	-115.0000	   7.5000	  -0.2717	  -2.5000	   0.1630	  45.8441	  55.5048	
 -10.0000	-115.0000	   7.5000	  -0.2174	  -2.5000	   0.1630	  36.6726	  53.3726	
  -7.5000	-115.0000	   7.5000	  -0.1630	  -2.5000	   0.1630	  29.7652	  47.5526	
  -5.0000	-115.0000	   7.5000	  -0.1087	  -2.5000	   0.1630	  23.6271	  40.4797	
  -2.5000	-115.0000	   7.5000	  -0.0543	  -2.5000	   0.1630	  17.4889	  33.4069	
   0.0000	-115.0000	   7.5000	   0.0000	  -2.5000	   0.1630	  12.2855	  26.9651	
   2.5000	-115.0000	   7.5000	   0.0543	  -2.5000	   0.1630	   9.8337	  22.3808	
   5.0000	-115.0000	   7.5000	   0.1087	  -2.5000	   0.1630	   8.3167	  18.4275	
   7.5000	-115.0000	   7.5000	   0.1630	  -2.5000	   0.1630	   6.7997	  14.4741	
  10.0000	-115.0000	   7.5000	   0.2174	  -2.5000	   0.1630	   5.4905	  11.2015	
  12.5000	-115.0000	   7.5000	   0.2717	  -2.5000	   0.1630	   4.7932	   9.9328	
  15.0000	-115.0000	   7.5000	   0.3261	  -2.5000	   0.1630	   4.3037	   9.3447	
  17.5000	-115.0000	   7.5000	   0.3804	  -2.5000	   0.1630	   3.8142	   8.7566	
  20.0000	-115.0000	   7.5000	   0.4348	  -2.5000	   0.1630	   3.3247	   8.1686	
 -20.0000	-112.5000	   7.5000	  -0.4348	  -2.4457	   0.1630	  78.1102	  58.1514	
 -17.5000	-112.5000	   7.5000	  -0.3804	  -2.4457	   0.1630	  67.3814	  57.2248	
 -15.0000	-112.5000	   7.5000	  -0.3261	  -2.4457	   0.1630	  56.7064	  56.3313	
 -12.5000	-112.5000	   7.5000	  -0.2717	  -2.4457	   0.1630	  46.1390	  55.4706	
 -10.0000	-112.5000	   7.5000	  -0.2174	  -2.4457	   0.1630	  35.8849	  54.0578	
  -7.5000	-112.5000	   7.5000	  -0.1630	  -2.4457	   0.1630	  29.4123	  47.3468	
  -5.0000	-112.5000	   7.5000	  -0.1087	  -2.4457	   0.1630	  23.3073	  40.1050	
  -2.5000	-112.5000	   7.5000	  -0.0543	  -2.4457	   0.1630	  17.2012	  32.8534	
   0.0000	-112.5000	   7.5000	   0.0000	  -2.4457	   0.1630	  11.4770	  25.8872	
   2.5000	-112.5000	   7.5000	   0.0543	  -2.4457	   0.1630	   9.6314	  21.7112	
   5.0000	-112.5000	   7.5000	   0.1087	  -2.4457	   0.1630	   8.1679	  17.8282	
   7.5000	-112.5000	   7.5000	   0.1630	  -2.4457	   0.1630	   6.7028	  13.9202	
  10.0000	-112.5000	   7.5000	   0.2174	  -2.4457	   0.1630	   5.3154	  10.2772	
  12.5000	-112.5000	   7.5000	   0.2717	  -2.4457	   0.1630	   4.7653	   9.5927	
  15.0000	-112.5000	   7.5000	   0.3261	  -2.4457	   0.1630	   4.2920	   9.1589	
  17.5000	-112.5000	   7.5000	   0.3804	  -2.4457	   0.1630	   3.8187	   8.7287	
  20.0000	-112.5000	   7.5000	   0.4348	  -2.4457	   0.1630	   3.3498	   8.3328	
 -20.0000	-110.0000	   7.5000	  -0.4348	  -2.3913	   0.1630	  77.9938	  56.9832	
 -17.5000	-110.0000	   7.5000	  -0.3804	  -2.3913	   0.1630	  67.2995	  56.4750	
 -15.0000	-110.0000	   7.5000	  -0.3261	  -2.3913	   0.1630	  56.6052	  55.9667	
 -12.5000	-110.0000	   7.5000	  -0.2717	  -2.3913	   0.1630	  45.9181	  55.4473	
 -10.0000	-110.0000	   7.5000	  -0.2174	  -2.3913	   0.1630	  36.5472	  52.9026	
  -7.5000	-110.0000	   7.5000	  -0.1630	  -2.3913	   0.1630	  29.1145	  47.3755	
  -5.0000	-110.0000	   7.5000	  -0.1087	  -2.3913	   0.1630	  22.9981	  39.8231	
  -2.5000	-110.0000	   7.5000	  -0.0543	  -2.3913	   0.1630	  16.8963	  32.2657	
   0.0000	-110.0000	   7.5000	   0.0000	  -2.3913	   0.1630	  12.1543	  25.8419	
   2.5000	-110.0000	   7.5000	   0.0543	  -2.3913	   0.1630	   9.4146	  21.0872	
   5.0000	-110.0000	   7.5000	   0.1087	  -2.3913	   0.1630	   8.0347	  17.4659	
   7.5000	-110.0000	   7.5000	   0.1630	  -2.3913	   0.1630	   6.6636	  13.8556	
  10.0000	-110.0000	   7.5000	   0.2174	  -2.3913	   0.1630	   5.5416	  11.0967	
  12.5000	-110.0000	   7.5000	   0.2717	  -2.3913	   0.1630	   4.7864	   9.5915	
  15.0000	-110.0000	   7.5000	   0.3261	  -2.3913	   0.1630	   4.2804	   8.9377	
  17.5000	-110.0000	   7.5000	   0.3804	  -2.3913	   0.1630	   3.7757	   8.2885	
  20.0000	-110.0000	   7.5000	   0.4348	  -2.3913	   0.1630	   3.2710	   7.6394	
 -20.0000	-107.5000	   7.5000	  -0.4348	  -2.3370	   0.1630	  77.8773	  55.8151	
 -17.5000	-107.5000	   7.5000	  -0.3804	  -2.3370	   0.1630	  67.1378	  55.6925	
 -15.0000	-107.5000	   7.5000	  -0.3261	  -2.3370	   0.1630	  56.3982	  55.5699	
 -12.5000	-107.5000	   7.5000	  -0.2717	  -2.3370	   0.1630	  45.8217	  55.1735	
 -10.0000	-107.5000	   7.5000	  -0.2174	  -2.3370	   0.1630	  36.6758	  52.3756	
  -7.5000	-107.5000	   7.5000	  -0.1630	  -2.3370	   0.1630	  28.9676	  47.1640	
  -5.0000	-107.5000	   7.5000	  -0.1087	  -2.3370	   0.1630	  22.6899	  39.5507	
  -2.5000	-107.5000	   7.5000	  -0.0543	  -2.3370	   0.1630	  16.7457	  31.8246	
   0.0000	-107.5000	   7.5000	   0.0000	  -2.3370	   0.1630	  12.2974	  25.5098	
   2.5000	-107.5000	   7.5000	   0.0543	  -2.3370	   0.1630	   9.3523	  20.6134	
   5.0000	-107.5000	   7.5000	   0.1087	  -2.3370	   0.1630	   7.9030	  17.1282	
   7.5000	-107.5000	   7.5000	   0.1630	  -2.3370	   0.1630	   6.6502	  13.8900	
  10.0000	-107.5000	   7.5000	   0.2174	  -2.3370	   0.1630	   5.6266	  11.4067	
  12.5000	-107.5000	   7.5000	   0.2717	  -2.3370	   0.1630	   4.8331	   9.6823	
  15.0000	-107.5000	   7.5000	   0.3261	  -2.3370	   0.1630	   4.2687	   8.7128	
  17.5000	-107.5000	   7.5000	   0.3804	  -2.3370	   0.1630	   3.7305	   7.8294	
  20.0000	-107.5000	   7.5000	   0.4348	  -2.3370	   0.1630	   3.1922	   6.9460	
 -20.0000	-105.0000	   7.5000	  -0.4348	  -2.2826	   0.1630	  77.7609	  54.6469	
 -17.5000	-105.0000	   7.5000	  -0.3804	  -2.2826	   0.1630	  66.9761	  54.9100	
 -15.0000	-105.0000	   7.5000	  -0.3261	  -2.2826	   0.1630	  56.1913	  55.1730	
 -12.5000	-105.0000	   7.5000	  -0.2717	  -2.2826	   0.1630	  45.5783	  55.1240	
 -10.0000	-105.0000	   7.5000	  -0.2174	  -2.2826	   0.1630	  36.4069	  52.4563	
  -7.5000	-105.0000	   7.5000	  -0.1630	  -2.2826	   0.1630	  28.6735	  47.1767	
  -5.0000	-105.0000	   7.5000	  -0.1087	  -2.2826	   0.1630	  22.3817	  39.2784	
  -2.5000	-105.0000	   7.5000	  -0.0543	  -2.2826	   0.1630	  16.4434	  31.2587	
   0.0000	-105.0000	   7.5000	   0.0000	  -2.2826	   0.1630	  12.0303	  24.8388	
   2.5000	-105.0000	   7.5000	   0.0543	  -2.2826	   0.1630	   9.1382	  20.0147	
   5.0000	-105.0000	   7.5000	   0.1087	  -2.2826	   0.1630	   7.7713	  16.7905	
   7.5000	-105.0000	   7.5000	   0.1630	  -2.2826	   0.1630	   6.6086	  13.8274	
  10.0000	-105.0000	   7.5000	   0.2174	  -2.2826	   0.1630	   5.6356	  11.4565	
  12.5000	-105.0000	   7.5000	   0.2717	  -2.2826	   0.1630	   4.8515	   9.6762	
  15.0000	-105.0000	   7.5000	   0.3261	  -2.2826	   0.1630	   4.2571	   8.4880	
  17.5000	-105.0000	   7.5000	   0.3804	  -2.2826	   0.1630	   3.6852	   7.3703	
  20.0000	-105.0000	   7.5000	   0.4348	  -2.2826	   0.1630	   3.1134	   6.2527	
 -20.0000	-102.5000	   7.5000	  -0.4348	  -2.2283	   0.1630	  77.6444	  53.4788	
 -17.5000	-102.5000	   7.5000	  -0.3804	  -2.2283	   0.1630	  66.8144	  54.1275	
 -15.0000	-102.5000	   7.5000	  -0.3261	  -2.2283	   0.1630	  55.9844	  54.7762	
 -12.5000	-102.5000	   7.5000	  -0.2717	  -2.2283	   0.1630	  45.1700	  55.3943	
 -10.0000	-102.5000	   7.5000	  -0.2174	  -2.2283	   0.1630	  35.7347	  53.3208	
  -7.5000	-102.5000	   7.5000	  -0.1630	  -2.2283	   0.1630	  28.2146	  47.5093	
  -5.0000	-102.5000	   7.5000	  -0.1087	  -2.2283	   0.1630	  22.0736	  39.0061	