Variables = "x [mm]"	"y [mm]"	"z [mm]"	"x/B"	"y/B"	"z/B"	"C*"	"C*std"	
Zone T = "East_y=-85mm_Tec" I=17 J=25 F=POINT
 -20.0000	 -85.0000	   5.0000	  -0.4348	  -1.8478	   0.1087	   9.2800	   7.3800	
 -17.5000	 -85.0000	   5.0000	  -0.3804	  -1.8478	   0.1087	  10.0975	   9.4350	
 -15.0000	 -85.0000	   5.0000	  -0.3261	  -1.8478	   0.1087	  10.9150	  11.4900	
 -12.5000	 -85.0000	   5.0000	  -0.2717	  -1.8478	   0.1087	  11.7325	  13.5450	
 -10.0000	 -85.0000	   5.0000	  -0.2174	  -1.8478	   0.1087	  12.5500	  15.6000	
  -7.5000	 -85.0000	   5.0000	  -0.1630	  -1.8478	   0.1087	  15.2075	  23.8525	
  -5.0000	 -85.0000	   5.0000	  -0.1087	  -1.8478	   0.1087	  17.8650	  32.1050	
  -2.5000	 -85.0000	   5.0000	  -0.0543	  -1.8478	   0.1087	  20.5225	  40.3575	
   0.0000	 -85.0000	   5.0000	   0.0000	  -1.8478	   0.1087	  23.1800	  48.6100	
   2.5000	 -85.0000	   5.0000	   0.0543	  -1.8478	   0.1087	  32.0775	  54.2625	
   5.0000	 -85.0000	   5.0000	   0.1087	  -1.8478	   0.1087	  40.9750	  59.9150	
   7.5000	 -85.0000	   5.0000	   0.1630	  -1.8478	   0.1087	  49.8725	  65.5675	
  10.0000	 -85.0000	   5.0000	   0.2174	  -1.8478	   0.1087	  58.7700	  71.2200	
  12.5000	 -85.0000	   5.0000	   0.2717	  -1.8478	   0.1087	  61.6125	  64.6375	
  15.0000	 -85.0000	   5.0000	   0.3261	  -1.8478	   0.1087	  64.4550	  58.0550	
  17.5000	 -85.0000	   5.0000	   0.3804	  -1.8478	   0.1087	  67.2975	  51.4725	
  20.0000	 -85.0000	   5.0000	   0.4348	  -1.8478	   0.1087	  70.1400	  44.8900	
 -20.0000	 -85.0000	   7.5000	  -0.4348	  -1.8478	   0.1630	   8.9475	   6.9825	
 -17.5000	 -85.0000	   7.5000	  -0.3804	  -1.8478	   0.1630	   9.7169	   8.7700	
 -15.0000	 -85.0000	   7.5000	  -0.3261	  -1.8478	   0.1630	  10.4863	  10.5575	
 -12.5000	 -85.0000	   7.5000	  -0.2717	  -1.8478	   0.1630	  11.2556	  12.3450	
 -10.0000	 -85.0000	   7.5000	  -0.2174	  -1.8478	   0.1630	  12.2542	  14.9308	
  -7.5000	 -85.0000	   7.5000	  -0.1630	  -1.8478	   0.1630	  14.1312	  20.5769	
  -5.0000	 -85.0000	   7.5000	  -0.1087	  -1.8478	   0.1630	  16.2375	  27.0213	
  -2.5000	 -85.0000	   7.5000	  -0.0543	  -1.8478	   0.1630	  18.3438	  33.4656	
   0.0000	 -85.0000	   7.5000	   0.0000	  -1.8478	   0.1630	  21.3197	  39.6479	
   2.5000	 -85.0000	   7.5000	   0.0543	  -1.8478	   0.1630	  27.6294	  44.8256	
   5.0000	 -85.0000	   7.5000	   0.1087	  -1.8478	   0.1630	  34.8088	  49.7413	
   7.5000	 -85.0000	   7.5000	   0.1630	  -1.8478	   0.1630	  41.9881	  54.6569	
  10.0000	 -85.0000	   7.5000	   0.2174	  -1.8478	   0.1630	  48.4613	  57.9673	
  12.5000	 -85.0000	   7.5000	   0.2717	  -1.8478	   0.1630	  52.2275	  55.1244	
  15.0000	 -85.0000	   7.5000	   0.3261	  -1.8478	   0.1630	  55.2875	  50.6763	
  17.5000	 -85.0000	   7.5000	   0.3804	  -1.8478	   0.1630	  58.3475	  46.2281	
  20.0000	 -85.0000	   7.5000	   0.4348	  -1.8478	   0.1630	  61.4075	  41.7800	
 -20.0000	 -85.0000	  10.0000	  -0.4348	  -1.8478	   0.2174	   8.6150	   6.5850	
 -17.5000	 -85.0000	  10.0000	  -0.3804	  -1.8478	   0.2174	   9.3363	   8.1050	
 -15.0000	 -85.0000	  10.0000	  -0.3261	  -1.8478	   0.2174	  10.0575	   9.6250	
 -12.5000	 -85.0000	  10.0000	  -0.2717	  -1.8478	   0.2174	  10.7788	  11.1450	
 -10.0000	 -85.0000	  10.0000	  -0.2174	  -1.8478	   0.2174	  11.6853	  13.3575	
  -7.5000	 -85.0000	  10.0000	  -0.1630	  -1.8478	   0.2174	  13.0550	  17.3012	
  -5.0000	 -85.0000	  10.0000	  -0.1087	  -1.8478	   0.2174	  14.6100	  21.9375	
  -2.5000	 -85.0000	  10.0000	  -0.0543	  -1.8478	   0.2174	  16.1650	  26.5737	
   0.0000	 -85.0000	  10.0000	   0.0000	  -1.8478	   0.2174	  18.5881	  31.1083	
   2.5000	 -85.0000	  10.0000	   0.0543	  -1.8478	   0.2174	  23.1812	  35.3887	
   5.0000	 -85.0000	  10.0000	   0.1087	  -1.8478	   0.2174	  28.6425	  39.5675	
   7.5000	 -85.0000	  10.0000	   0.1630	  -1.8478	   0.2174	  34.1037	  43.7462	
  10.0000	 -85.0000	  10.0000	   0.2174	  -1.8478	   0.2174	  39.0797	  46.4822	
  12.5000	 -85.0000	  10.0000	   0.2717	  -1.8478	   0.2174	  42.8425	  45.6112	
  15.0000	 -85.0000	  10.0000	   0.3261	  -1.8478	   0.2174	  46.1200	  43.2975	
  17.5000	 -85.0000	  10.0000	   0.3804	  -1.8478	   0.2174	  49.3975	  40.9838	
  20.0000	 -85.0000	  10.0000	   0.4348	  -1.8478	   0.2174	  52.6750	  38.6700	
 -20.0000	 -85.0000	  12.5000	  -0.4348	  -1.8478	   0.2717	   8.2825	   6.1875	
 -17.5000	 -85.0000	  12.5000	  -0.3804	  -1.8478	   0.2717	   8.9556	   7.4400	
 -15.0000	 -85.0000	  12.5000	  -0.3261	  -1.8478	   0.2717	   9.6288	   8.6925	
 -12.5000	 -85.0000	  12.5000	  -0.2717	  -1.8478	   0.2717	  10.3019	   9.9450	
 -10.0000	 -85.0000	  12.5000	  -0.2174	  -1.8478	   0.2717	  11.0317	  11.4676	
  -7.5000	 -85.0000	  12.5000	  -0.1630	  -1.8478	   0.2717	  11.9788	  14.0256	
  -5.0000	 -85.0000	  12.5000	  -0.1087	  -1.8478	   0.2717	  12.9825	  16.8537	
  -2.5000	 -85.0000	  12.5000	  -0.0543	  -1.8478	   0.2717	  13.9863	  19.6819	
   0.0000	 -85.0000	  12.5000	   0.0000	  -1.8478	   0.2717	  15.4596	  22.6152	
   2.5000	 -85.0000	  12.5000	   0.0543	  -1.8478	   0.2717	  18.7331	  25.9519	
   5.0000	 -85.0000	  12.5000	   0.1087	  -1.8478	   0.2717	  22.4763	  29.3938	
   7.5000	 -85.0000	  12.5000	   0.1630	  -1.8478	   0.2717	  26.2194	  32.8356	
  10.0000	 -85.0000	  12.5000	   0.2174	  -1.8478	   0.2717	  29.9200	  35.6567	
  12.5000	 -85.0000	  12.5000	   0.2717	  -1.8478	   0.2717	  33.4575	  36.0981	
  15.0000	 -85.0000	  12.5000	   0.3261	  -1.8478	   0.2717	  36.9525	  35.9188	
  17.5000	 -85.0000	  12.5000	   0.3804	  -1.8478	   0.2717	  40.4475	  35.7394	
  20.0000	 -85.0000	  12.5000	   0.4348	  -1.8478	   0.2717	  43.9425	  35.5600	
 -20.0000	 -85.0000	  15.0000	  -0.4348	  -1.8478	   0.3261	   7.9500	   5.7900	
 -17.5000	 -85.0000	  15.0000	  -0.3804	  -1.8478	   0.3261	   8.5984	   6.8215	
 -15.0000	 -85.0000	  15.0000	  -0.3261	  -1.8478	   0.3261	   9.2267	   7.8406	
 -12.5000	 -85.0000	  15.0000	  -0.2717	  -1.8478	   0.3261	   9.8428	   8.8228	
 -10.0000	 -85.0000	  15.0000	  -0.2174	  -1.8478	   0.3261	  10.4500	   9.7300	
  -7.5000	 -85.0000	  15.0000	  -0.1630	  -1.8478	   0.3261	  11.0132	  11.1366	
  -5.0000	 -85.0000	  15.0000	  -0.1087	  -1.8478	   0.3261	  11.6225	  12.6511	
  -2.5000	 -85.0000	  15.0000	  -0.0543	  -1.8478	   0.3261	  12.1095	  13.7629	
   0.0000	 -85.0000	  15.0000	   0.0000	  -1.8478	   0.3261	  12.2600	  13.8100	
   2.5000	 -85.0000	  15.0000	   0.0543	  -1.8478	   0.3261	  14.9529	  17.8705	
   5.0000	 -85.0000	  15.0000	   0.1087	  -1.8478	   0.3261	  17.5261	  21.0931	
   7.5000	 -85.0000	  15.0000	   0.1630	  -1.8478	   0.3261	  19.5434	  23.4594	
  10.0000	 -85.0000	  15.0000	   0.2174	  -1.8478	   0.3261	  20.3600	  24.6300	
  12.5000	 -85.0000	  15.0000	   0.2717	  -1.8478	   0.3261	  25.4714	  27.8501	
  15.0000	 -85.0000	  15.0000	   0.3261	  -1.8478	   0.3261	  29.4950	  29.7150	
  17.5000	 -85.0000	  15.0000	   0.3804	  -1.8478	   0.3261	  32.7369	  31.0427	
  20.0000	 -85.0000	  15.0000	   0.4348	  -1.8478	   0.3261	  35.2100	  32.4500	
 -20.0000	 -85.0000	  17.5000	  -0.4348	  -1.8478	   0.3804	   7.7700	   5.5725	
 -17.5000	 -85.0000	  17.5000	  -0.3804	  -1.8478	   0.3804	   8.3306	   6.3813	
 -15.0000	 -85.0000	  17.5000	  -0.3261	  -1.8478	   0.3804	   8.8912	   7.1900	
 -12.5000	 -85.0000	  17.5000	  -0.2717	  -1.8478	   0.3804	   9.4519	   7.9988	
 -10.0000	 -85.0000	  17.5000	  -0.2174	  -1.8478	   0.3804	   9.9951	   8.8269	
  -7.5000	 -85.0000	  17.5000	  -0.1630	  -1.8478	   0.3804	  10.4719	   9.7294	
  -5.0000	 -85.0000	  17.5000	  -0.1087	  -1.8478	   0.3804	  10.9313	  10.6512	
  -2.5000	 -85.0000	  17.5000	  -0.0543	  -1.8478	   0.3804	  11.3906	  11.5731	
   0.0000	 -85.0000	  17.5000	   0.0000	  -1.8478	   0.3804	  12.0941	  12.7638	
   2.5000	 -85.0000	  17.5000	   0.0543	  -1.8478	   0.3804	  13.7331	  14.9850	
   5.0000	 -85.0000	  17.5000	   0.1087	  -1.8478	   0.3804	  15.6162	  17.4750	
   7.5000	 -85.0000	  17.5000	   0.1630	  -1.8478	   0.3804	  17.4994	  19.9650	
  10.0000	 -85.0000	  17.5000	   0.2174	  -1.8478	   0.3804	  19.6537	  22.3705	
  12.5000	 -85.0000	  17.5000	   0.2717	  -1.8478	   0.3804	  22.8475	  24.4519	
  15.0000	 -85.0000	  17.5000	   0.3261	  -1.8478	   0.3804	  26.3125	  26.4488	
  17.5000	 -85.0000	  17.5000	   0.3804	  -1.8478	   0.3804	  29.7775	  28.4456	
  20.0000	 -85.0000	  17.5000	   0.4348	  -1.8478	   0.3804	  33.2425	  30.4425	
 -20.0000	 -85.0000	  20.0000	  -0.4348	  -1.8478	   0.4348	   7.5900	   5.3550	
 -17.5000	 -85.0000	  20.0000	  -0.3804	  -1.8478	   0.4348	   8.0862	   5.9875	
 -15.0000	 -85.0000	  20.0000	  -0.3261	  -1.8478	   0.4348	   8.5825	   6.6200	
 -12.5000	 -85.0000	  20.0000	  -0.2717	  -1.8478	   0.4348	   9.0787	   7.2525	
 -10.0000	 -85.0000	  20.0000	  -0.2174	  -1.8478	   0.4348	   9.5683	   7.9275	
  -7.5000	 -85.0000	  20.0000	  -0.1630	  -1.8478	   0.4348	  10.0412	   8.7088	
  -5.0000	 -85.0000	  20.0000	  -0.1087	  -1.8478	   0.4348	  10.5075	   9.5325	
  -2.5000	 -85.0000	  20.0000	  -0.0543	  -1.8478	   0.4348	  10.9737	  10.3562	
   0.0000	 -85.0000	  20.0000	   0.0000	  -1.8478	   0.4348	  11.7233	  11.5025	
   2.5000	 -85.0000	  20.0000	   0.0543	  -1.8478	   0.4348	  13.1813	  13.4550	
   5.0000	 -85.0000	  20.0000	   0.1087	  -1.8478	   0.4348	  14.9225	  15.7300	
   7.5000	 -85.0000	  20.0000	   0.1630	  -1.8478	   0.4348	  16.6637	  18.0050	
  10.0000	 -85.0000	  20.0000	   0.2174	  -1.8478	   0.4348	  18.7331	  20.2275	
  12.5000	 -85.0000	  20.0000	   0.2717	  -1.8478	   0.4348	  21.6225	  22.3188	
  15.0000	 -85.0000	  20.0000	   0.3261	  -1.8478	   0.4348	  24.8400	  24.3575	
  17.5000	 -85.0000	  20.0000	   0.3804	  -1.8478	   0.4348	  28.0575	  26.3963	
  20.0000	 -85.0000	  20.0000	   0.4348	  -1.8478	   0.4348	  31.2750	  28.4350	
 -20.0000	 -85.0000	  22.5000	  -0.4348	  -1.8478	   0.4891	   7.4100	   5.1375	
 -17.5000	 -85.0000	  22.5000	  -0.3804	  -1.8478	   0.4891	   7.8419	   5.5938	
 -15.0000	 -85.0000	  22.5000	  -0.3261	  -1.8478	   0.4891	   8.2737	   6.0500	
 -12.5000	 -85.0000	  22.5000	  -0.2717	  -1.8478	   0.4891	   8.7056	   6.5063	
 -10.0000	 -85.0000	  22.5000	  -0.2174	  -1.8478	   0.4891	   9.1446	   7.0087	
  -7.5000	 -85.0000	  22.5000	  -0.1630	  -1.8478	   0.4891	   9.6106	   7.6881	
  -5.0000	 -85.0000	  22.5000	  -0.1087	  -1.8478	   0.4891	  10.0837	   8.4138	
  -2.5000	 -85.0000	  22.5000	  -0.0543	  -1.8478	   0.4891	  10.5569	   9.1394	
   0.0000	 -85.0000	  22.5000	   0.0000	  -1.8478	   0.4891	  11.2231	  10.0938	
   2.5000	 -85.0000	  22.5000	   0.0543	  -1.8478	   0.4891	  12.6294	  11.9250	
   5.0000	 -85.0000	  22.5000	   0.1087	  -1.8478	   0.4891	  14.2287	  13.9850	
   7.5000	 -85.0000	  22.5000	   0.1630	  -1.8478	   0.4891	  15.8281	  16.0450	
  10.0000	 -85.0000	  22.5000	   0.2174	  -1.8478	   0.4891	  17.6625	  18.1085	
  12.5000	 -85.0000	  22.5000	   0.2717	  -1.8478	   0.4891	  20.3975	  20.1856	
  15.0000	 -85.0000	  22.5000	   0.3261	  -1.8478	   0.4891	  23.3675	  22.2662	
  17.5000	 -85.0000	  22.5000	   0.3804	  -1.8478	   0.4891	  26.3375	  24.3469	
  20.0000	 -85.0000	  22.5000	   0.4348	  -1.8478	   0.4891	  29.3075	  26.4275	
 -20.0000	 -85.0000	  25.0000	  -0.4348	  -1.8478	   0.5435	   7.2300	   4.9200	
 -17.5000	 -85.0000	  25.0000	  -0.3804	  -1.8478	   0.5435	   7.6359	   5.2507	
 -15.0000	 -85.0000	  25.0000	  -0.3261	  -1.8478	   0.5435	   8.0467	   5.5925	
 -12.5000	 -85.0000	  25.0000	  -0.2717	  -1.8478	   0.5435	   8.4201	   5.8829	
 -10.0000	 -85.0000	  25.0000	  -0.2174	  -1.8478	   0.5435	   8.7000	   6.0400	
  -7.5000	 -85.0000	  25.0000	  -0.1630	  -1.8478	   0.5435	   9.2833	   6.8416	
  -5.0000	 -85.0000	  25.0000	  -0.1087	  -1.8478	   0.5435	   9.7822	   7.5403	
  -2.5000	 -85.0000	  25.0000	  -0.0543	  -1.8478	   0.5435	  10.2253	   8.1268	
   0.0000	 -85.0000	  25.0000	   0.0000	  -1.8478	   0.5435	  10.6200	   8.5500	
   2.5000	 -85.0000	  25.0000	   0.0543	  -1.8478	   0.5435	  12.1544	  10.6126	
   5.0000	 -85.0000	  25.0000	   0.1087	  -1.8478	   0.5435	  13.6356	  12.5197	
   7.5000	 -85.0000	  25.0000	   0.1630	  -1.8478	   0.5435	  15.0707	  14.2990	
  10.0000	 -85.0000	  25.0000	   0.2174	  -1.8478	   0.5435	  16.4500	  15.9300	
  12.5000	 -85.0000	  25.0000	   0.2717	  -1.8478	   0.5435	  19.2778	  18.2440	
  15.0000	 -85.0000	  25.0000	   0.3261	  -1.8478	   0.5435	  22.0658	  20.3964	
  17.5000	 -85.0000	  25.0000	   0.3804	  -1.8478	   0.5435	  24.7758	  22.4476	
  20.0000	 -85.0000	  25.0000	   0.4348	  -1.8478	   0.5435	  27.3400	  24.4200	
 -20.0000	 -85.0000	  27.5000	  -0.4348	  -1.8478	   0.5978	   7.1300	   4.7875	
 -17.5000	 -85.0000	  27.5000	  -0.3804	  -1.8478	   0.5978	   7.5769	   5.1019	
 -15.0000	 -85.0000	  27.5000	  -0.3261	  -1.8478	   0.5978	   8.0237	   5.4162	
 -12.5000	 -85.0000	  27.5000	  -0.2717	  -1.8478	   0.5978	   8.4706	   5.7306	
 -10.0000	 -85.0000	  27.5000	  -0.2174	  -1.8478	   0.5978	   8.9154	   6.0970	
  -7.5000	 -85.0000	  27.5000	  -0.1630	  -1.8478	   0.5978	   9.3519	   6.6625	
  -5.0000	 -85.0000	  27.5000	  -0.1087	  -1.8478	   0.5978	   9.7862	   7.2800	
  -2.5000	 -85.0000	  27.5000	  -0.0543	  -1.8478	   0.5978	  10.2206	   7.8975	
   0.0000	 -85.0000	  27.5000	   0.0000	  -1.8478	   0.5978	  10.8067	   8.6867	
   2.5000	 -85.0000	  27.5000	   0.0543	  -1.8478	   0.5978	  11.9744	  10.1344	
   5.0000	 -85.0000	  27.5000	   0.1087	  -1.8478	   0.5978	  13.2937	  11.7538	
   7.5000	 -85.0000	  27.5000	   0.1630	  -1.8478	   0.5978	  14.6131	  13.3731	
  10.0000	 -85.0000	  27.5000	   0.2174	  -1.8478	   0.5978	  16.1571	  15.0652	
  12.5000	 -85.0000	  27.5000	   0.2717	  -1.8478	   0.5978	  18.5619	  17.0362	
  15.0000	 -85.0000	  27.5000	   0.3261	  -1.8478	   0.5978	  21.1912	  19.0800	
  17.5000	 -85.0000	  27.5000	   0.3804	  -1.8478	   0.5978	  23.8206	  21.1238	
  20.0000	 -85.0000	  27.5000	   0.4348	  -1.8478	   0.5978	  26.4500	  23.1675	
 -20.0000	 -85.0000	  30.0000	  -0.4348	  -1.8478	   0.6522	   7.0300	   4.6550	
 -17.5000	 -85.0000	  30.0000	  -0.3804	  -1.8478	   0.6522	   7.5563	   5.0037	
 -15.0000	 -85.0000	  30.0000	  -0.3261	  -1.8478	   0.6522	   8.0825	   5.3525	
 -12.5000	 -85.0000	  30.0000	  -0.2717	  -1.8478	   0.6522	   8.6087	   5.7012	
 -10.0000	 -85.0000	  30.0000	  -0.2174	  -1.8478	   0.6522	   9.1044	   6.1075	
  -7.5000	 -85.0000	  30.0000	  -0.1630	  -1.8478	   0.6522	   9.5237	   6.6575	
  -5.0000	 -85.0000	  30.0000	  -0.1087	  -1.8478	   0.6522	   9.9125	   7.2650	
  -2.5000	 -85.0000	  30.0000	  -0.0543	  -1.8478	   0.6522	  10.3012	   7.8725	
   0.0000	 -85.0000	  30.0000	   0.0000	  -1.8478	   0.6522	  10.8661	   8.6547	
   2.5000	 -85.0000	  30.0000	   0.0543	  -1.8478	   0.6522	  11.8712	   9.8738	
   5.0000	 -85.0000	  30.0000	   0.1087	  -1.8478	   0.6522	  13.0525	  11.2675	
   7.5000	 -85.0000	  30.0000	   0.1630	  -1.8478	   0.6522	  14.2337	  12.6612	
  10.0000	 -85.0000	  30.0000	   0.2174	  -1.8478	   0.6522	  15.7161	  14.1819	
  12.5000	 -85.0000	  30.0000	   0.2717	  -1.8478	   0.6522	  17.9512	  16.0200	
  15.0000	 -85.0000	  30.0000	   0.3261	  -1.8478	   0.6522	  20.4875	  17.9850	
  17.5000	 -85.0000	  30.0000	   0.3804	  -1.8478	   0.6522	  23.0237	  19.9500	
  20.0000	 -85.0000	  30.0000	   0.4348	  -1.8478	   0.6522	  25.5600	  21.9150	
 -20.0000	 -85.0000	  32.5000	  -0.4348	  -1.8478	   0.7065	   6.9300	   4.5225	
 -17.5000	 -85.0000	  32.5000	  -0.3804	  -1.8478	   0.7065	   7.5356	   4.9056	
 -15.0000	 -85.0000	  32.5000	  -0.3261	  -1.8478	   0.7065	   8.1412	   5.2887	
 -12.5000	 -85.0000	  32.5000	  -0.2717	  -1.8478	   0.7065	   8.7469	   5.6719	
 -10.0000	 -85.0000	  32.5000	  -0.2174	  -1.8478	   0.7065	   9.3075	   6.0917	
  -7.5000	 -85.0000	  32.5000	  -0.1630	  -1.8478	   0.7065	   9.6956	   6.6525	
  -5.0000	 -85.0000	  32.5000	  -0.1087	  -1.8478	   0.7065	  10.0388	   7.2500	
  -2.5000	 -85.0000	  32.5000	  -0.0543	  -1.8478	   0.7065	  10.3819	   7.8475	
   0.0000	 -85.0000	  32.5000	   0.0000	  -1.8478	   0.7065	  10.8450	   8.5428	
   2.5000	 -85.0000	  32.5000	   0.0543	  -1.8478	   0.7065	  11.7681	   9.6131	
   5.0000	 -85.0000	  32.5000	   0.1087	  -1.8478	   0.7065	  12.8112	  10.7812	
   7.5000	 -85.0000	  32.5000	   0.1630	  -1.8478	   0.7065	  13.8544	  11.9494	
  10.0000	 -85.0000	  32.5000	   0.2174	  -1.8478	   0.7065	  15.1375	  13.2406	
  12.5000	 -85.0000	  32.5000	   0.2717	  -1.8478	   0.7065	  17.3406	  15.0038	
  15.0000	 -85.0000	  32.5000	   0.3261	  -1.8478	   0.7065	  19.7837	  16.8900	
  17.5000	 -85.0000	  32.5000	   0.3804	  -1.8478	   0.7065	  22.2269	  18.7763	
  20.0000	 -85.0000	  32.5000	   0.4348	  -1.8478	   0.7065	  24.6700	  20.6625	
 -20.0000	 -85.0000	  35.0000	  -0.4348	  -1.8478	   0.7609	   6.8300	   4.3900	
 -17.5000	 -85.0000	  35.0000	  -0.3804	  -1.8478	   0.7609	   7.5197	   4.8374	
 -15.0000	 -85.0000	  35.0000	  -0.3261	  -1.8478	   0.7609	   8.1956	   5.2603	
 -12.5000	 -85.0000	  35.0000	  -0.2717	  -1.8478	   0.7609	   8.8734	   5.6670	
 -10.0000	 -85.0000	  35.0000	  -0.2174	  -1.8478	   0.7609	   9.5700	   6.0600	
  -7.5000	 -85.0000	  35.0000	  -0.1630	  -1.8478	   0.7609	   9.8699	   6.6701	
  -5.0000	 -85.0000	  35.0000	  -0.1087	  -1.8478	   0.7609	  10.1967	   7.2653	
  -2.5000	 -85.0000	  35.0000	  -0.0543	  -1.8478	   0.7609	  10.5090	   7.8466	
   0.0000	 -85.0000	  35.0000	   0.0000	  -1.8478	   0.7609	  10.7600	   8.4100	
   2.5000	 -85.0000	  35.0000	   0.0543	  -1.8478	   0.7609	  11.7476	   9.4052	
   5.0000	 -85.0000	  35.0000	   0.1087	  -1.8478	   0.7609	  12.6953	  10.3994	
   7.5000	 -85.0000	  35.0000	   0.1630	  -1.8478	   0.7609	  13.5857	  11.3459	
  10.0000	 -85.0000	  35.0000	   0.2174	  -1.8478	   0.7609	  14.3800	  12.1800	
  12.5000	 -85.0000	  35.0000	   0.2717	  -1.8478	   0.7609	  16.8461	  14.1212	
  15.0000	 -85.0000	  35.0000	   0.3261	  -1.8478	   0.7609	  19.2194	  15.9650	
  17.5000	 -85.0000	  35.0000	   0.3804	  -1.8478	   0.7609	  21.5290	  17.7311	
  20.0000	 -85.0000	  35.0000	   0.4348	  -1.8478	   0.7609	  23.7800	  19.4100	
 -20.0000	 -85.0000	  37.5000	  -0.4348	  -1.8478	   0.8152	   6.8050	   4.4475	
 -17.5000	 -85.0000	  37.5000	  -0.3804	  -1.8478	   0.8152	   7.5219	   4.8837	
 -15.0000	 -85.0000	  37.5000	  -0.3261	  -1.8478	   0.8152	   8.2387	   5.3200	
 -12.5000	 -85.0000	  37.5000	  -0.2717	  -1.8478	   0.8152	   8.9556	   5.7562	
 -10.0000	 -85.0000	  37.5000	  -0.2174	  -1.8478	   0.8152	   9.6149	   6.2175	
  -7.5000	 -85.0000	  37.5000	  -0.1630	  -1.8478	   0.8152	  10.0531	   6.7744	
  -5.0000	 -85.0000	  37.5000	  -0.1087	  -1.8478	   0.8152	  10.4337	   7.3562	
  -2.5000	 -85.0000	  37.5000	  -0.0543	  -1.8478	   0.8152	  10.8144	   7.9381	
   0.0000	 -85.0000	  37.5000	   0.0000	  -1.8478	   0.8152	  11.2753	   8.5710	
   2.5000	 -85.0000	  37.5000	   0.0543	  -1.8478	   0.8152	  12.0438	   9.3994	
   5.0000	 -85.0000	  37.5000	   0.1087	  -1.8478	   0.8152	  12.8925	  10.2787	
   7.5000	 -85.0000	  37.5000	   0.1630	  -1.8478	   0.8152	  13.7413	  11.1581	
  10.0000	 -85.0000	  37.5000	   0.2174	  -1.8478	   0.8152	  14.8228	  12.1805	
  12.5000	 -85.0000	  37.5000	   0.2717	  -1.8478	   0.8152	  16.7969	  13.7513	
  15.0000	 -85.0000	  37.5000	   0.3261	  -1.8478	   0.8152	  19.0038	  15.4650	
  17.5000	 -85.0000	  37.5000	   0.3804	  -1.8478	   0.8152	  21.2106	  17.1788	
  20.0000	 -85.0000	  37.5000	   0.4348	  -1.8478	   0.8152	  23.4175	  18.8925	
 -20.0000	 -85.0000	  40.0000	  -0.4348	  -1.8478	   0.8696	   6.7800	   4.5050	
 -17.5000	 -85.0000	  40.0000	  -0.3804	  -1.8478	   0.8696	   7.5287	   4.9600	
 -15.0000	 -85.0000	  40.0000	  -0.3261	  -1.8478	   0.8696	   8.2775	   5.4150	
 -12.5000	 -85.0000	  40.0000	  -0.2717	  -1.8478	   0.8696	   9.0263	   5.8700	
 -10.0000	 -85.0000	  40.0000	  -0.2174	  -1.8478	   0.8696	   9.7117	   6.3519	
  -7.5000	 -85.0000	  40.0000	  -0.1630	  -1.8478	   0.8696	  10.2387	   6.9012	
  -5.0000	 -85.0000	  40.0000	  -0.1087	  -1.8478	   0.8696	  10.7025	   7.4775	
  -2.5000	 -85.0000	  40.0000	  -0.0543	  -1.8478	   0.8696	  11.1662	   8.0537	
   0.0000	 -85.0000	  40.0000	   0.0000	  -1.8478	   0.8696	  11.7031	   8.6833	
   2.5000	 -85.0000	  40.0000	   0.0543	  -1.8478	   0.8696	  12.4225	   9.4463	
   5.0000	 -85.0000	  40.0000	   0.1087	  -1.8478	   0.8696	  13.2150	  10.2625	
   7.5000	 -85.0000	  40.0000	   0.1630	  -1.8478	   0.8696	  14.0075	  11.0787	
  10.0000	 -85.0000	  40.0000	   0.2174	  -1.8478	   0.8696	  15.0825	  12.0736	
  12.5000	 -85.0000	  40.0000	   0.2717	  -1.8478	   0.8696	  16.8637	  13.5150	
  15.0000	 -85.0000	  40.0000	   0.3261	  -1.8478	   0.8696	  18.9275	  15.1350	
  17.5000	 -85.0000	  40.0000	   0.3804	  -1.8478	   0.8696	  20.9913	  16.7550	
  20.0000	 -85.0000	  40.0000	   0.4348	  -1.8478	   0.8696	  23.0550	  18.3750	
 -20.0000	 -85.0000	  42.5000	  -0.4348	  -1.8478	   0.9239	   6.7550	   4.5625	
 -17.5000	 -85.0000	  42.5000	  -0.3804	  -1.8478	   0.9239	   7.5356	   5.0362	
 -15.0000	 -85.0000	  42.5000	  -0.3261	  -1.8478	   0.9239	   8.3163	   5.5100	
 -12.5000	 -85.0000	  42.5000	  -0.2717	  -1.8478	   0.9239	   9.0969	   5.9838	
 -10.0000	 -85.0000	  42.5000	  -0.2174	  -1.8478	   0.9239	   9.8374	   6.4741	
  -7.5000	 -85.0000	  42.5000	  -0.1630	  -1.8478	   0.9239	  10.4244	   7.0281	
  -5.0000	 -85.0000	  42.5000	  -0.1087	  -1.8478	   0.9239	  10.9712	   7.5987	
  -2.5000	 -85.0000	  42.5000	  -0.0543	  -1.8478	   0.9239	  11.5181	   8.1694	
   0.0000	 -85.0000	  42.5000	   0.0000	  -1.8478	   0.9239	  12.0975	   8.7713	
   2.5000	 -85.0000	  42.5000	   0.0543	  -1.8478	   0.9239	  12.8012	   9.4931	
   5.0000	 -85.0000	  42.5000	   0.1087	  -1.8478	   0.9239	  13.5375	  10.2462	
   7.5000	 -85.0000	  42.5000	   0.1630	  -1.8478	   0.9239	  14.2738	  10.9994	
  10.0000	 -85.0000	  42.5000	   0.2174	  -1.8478	   0.9239	  15.2130	  11.8850	
  12.5000	 -85.0000	  42.5000	   0.2717	  -1.8478	   0.9239	  16.9306	  13.2787	
  15.0000	 -85.0000	  42.5000	   0.3261	  -1.8478	   0.9239	  18.8513	  14.8050	
  17.5000	 -85.0000	  42.5000	   0.3804	  -1.8478	   0.9239	  20.7719	  16.3313	
  20.0000	 -85.0000	  42.5000	   0.4348	  -1.8478	   0.9239	  22.6925	  17.8575	
 -20.0000	 -85.0000	  45.0000	  -0.4348	  -1.8478	   0.9783	   6.7300	   4.6200	
 -17.5000	 -85.0000	  45.0000	  -0.3804	  -1.8478	   0.9783	   7.5317	   5.1419	
 -15.0000	 -85.0000	  45.0000	  -0.3261	  -1.8478	   0.9783	   8.3164	   5.6333	
 -12.5000	 -85.0000	  45.0000	  -0.2717	  -1.8478	   0.9783	   9.1187	   6.1119	
 -10.0000	 -85.0000	  45.0000	  -0.2174	  -1.8478	   0.9783	   9.9800	   6.5900	
  -7.5000	 -85.0000	  45.0000	  -0.1630	  -1.8478	   0.9783	  10.5180	   7.1508	
  -5.0000	 -85.0000	  45.0000	  -0.1087	  -1.8478	   0.9783	  11.0892	   7.7003	
  -2.5000	 -85.0000	  45.0000	  -0.0543	  -1.8478	   0.9783	  11.7293	   8.2587	
   0.0000	 -85.0000	  45.0000	   0.0000	  -1.8478	   0.9783	  12.5000	   8.8500	
   2.5000	 -85.0000	  45.0000	   0.0543	  -1.8478	   0.9783	  13.0147	   9.5035	
   5.0000	 -85.0000	  45.0000	   0.1087	  -1.8478	   0.9783	  13.6453	  10.1836	
   7.5000	 -85.0000	  45.0000	   0.1630	  -1.8478	   0.9783	  14.3740	  10.8850	
  10.0000	 -85.0000	  45.0000	   0.2174	  -1.8478	   0.9783	  15.2200	  11.6100	
  12.5000	 -85.0000	  45.0000	   0.2717	  -1.8478	   0.9783	  16.7819	  12.9635	
  15.0000	 -85.0000	  45.0000	   0.3261	  -1.8478	   0.9783	  18.4317	  14.3147	
  17.5000	 -85.0000	  45.0000	   0.3804	  -1.8478	   0.9783	  20.2384	  15.7392	
  20.0000	 -85.0000	  45.0000	   0.4348	  -1.8478	   0.9783	  22.3300	  17.3400	
 -20.0000	 -85.0000	  47.5000	  -0.4348	  -1.8478	   1.0326	   6.7525	   4.8925	
 -17.5000	 -85.0000	  47.5000	  -0.3804	  -1.8478	   1.0326	   7.4863	   5.3600	
 -15.0000	 -85.0000	  47.5000	  -0.3261	  -1.8478	   1.0326	   8.2200	   5.8275	
 -12.5000	 -85.0000	  47.5000	  -0.2717	  -1.8478	   1.0326	   8.9537	   6.2950	
 -10.0000	 -85.0000	  47.5000	  -0.2174	  -1.8478	   1.0326	   9.6596	   6.7672	
  -7.5000	 -85.0000	  47.5000	  -0.1630	  -1.8478	   1.0326	  10.2587	   7.2575	
  -5.0000	 -85.0000	  47.5000	  -0.1087	  -1.8478	   1.0326	  10.8300	   7.7525	
  -2.5000	 -85.0000	  47.5000	  -0.0543	  -1.8478	   1.0326	  11.4013	   8.2475	
   0.0000	 -85.0000	  47.5000	   0.0000	  -1.8478	   1.0326	  11.9812	   8.7659	
   2.5000	 -85.0000	  47.5000	   0.0543	  -1.8478	   1.0326	  12.5944	   9.3737	
   5.0000	 -85.0000	  47.5000	   0.1087	  -1.8478	   1.0326	  13.2163	  10.0050	
   7.5000	 -85.0000	  47.5000	   0.1630	  -1.8478	   1.0326	  13.8381	  10.6362	
  10.0000	 -85.0000	  47.5000	   0.2174	  -1.8478	   1.0326	  14.5843	  11.3441	
  12.5000	 -85.0000	  47.5000	   0.2717	  -1.8478	   1.0326	  15.8069	  12.3456	
  15.0000	 -85.0000	  47.5000	   0.3261	  -1.8478	   1.0326	  17.1538	  13.4238	
  17.5000	 -85.0000	  47.5000	   0.3804	  -1.8478	   1.0326	  18.5006	  14.5019	
  20.0000	 -85.0000	  47.5000	   0.4348	  -1.8478	   1.0326	  19.8475	  15.5800	
 -20.0000	 -85.0000	  50.0000	  -0.4348	  -1.8478	   1.0870	   6.7750	   5.1650	
 -17.5000	 -85.0000	  50.0000	  -0.3804	  -1.8478	   1.0870	   7.4300	   5.6075	
 -15.0000	 -85.0000	  50.0000	  -0.3261	  -1.8478	   1.0870	   8.0850	   6.0500	
 -12.5000	 -85.0000	  50.0000	  -0.2717	  -1.8478	   1.0870	   8.7400	   6.4925	
 -10.0000	 -85.0000	  50.0000	  -0.2174	  -1.8478	   1.0870	   9.3633	   6.9311	
  -7.5000	 -85.0000	  50.0000	  -0.1630	  -1.8478	   1.0870	   9.9075	   7.3600	
  -5.0000	 -85.0000	  50.0000	  -0.1087	  -1.8478	   1.0870	  10.4200	   7.7850	
  -2.5000	 -85.0000	  50.0000	  -0.0543	  -1.8478	   1.0870	  10.9325	   8.2100	
   0.0000	 -85.0000	  50.0000	   0.0000	  -1.8478	   1.0870	  11.4564	   8.6678	
   2.5000	 -85.0000	  50.0000	   0.0543	  -1.8478	   1.0870	  12.0087	   9.2075	
   5.0000	 -85.0000	  50.0000	   0.1087	  -1.8478	   1.0870	  12.5725	   9.7800	
   7.5000	 -85.0000	  50.0000	   0.1630	  -1.8478	   1.0870	  13.1363	  10.3525	
  10.0000	 -85.0000	  50.0000	   0.2174	  -1.8478	   1.0870	  13.7783	  10.9586	
  12.5000	 -85.0000	  50.0000	   0.2717	  -1.8478	   1.0870	  14.6162	  11.6487	
  15.0000	 -85.0000	  50.0000	   0.3261	  -1.8478	   1.0870	  15.5325	  12.3725	
  17.5000	 -85.0000	  50.0000	   0.3804	  -1.8478	   1.0870	  16.4488	  13.0963	
  20.0000	 -85.0000	  50.0000	   0.4348	  -1.8478	   1.0870	  17.3650	  13.8200	
 -20.0000	 -85.0000	  52.5000	  -0.4348	  -1.8478	   1.1413	   6.7975	   5.4375	
 -17.5000	 -85.0000	  52.5000	  -0.3804	  -1.8478	   1.1413	   7.3737	   5.8550	
 -15.0000	 -85.0000	  52.5000	  -0.3261	  -1.8478	   1.1413	   7.9500	   6.2725	
 -12.5000	 -85.0000	  52.5000	  -0.2717	  -1.8478	   1.1413	   8.5263	   6.6900	
 -10.0000	 -85.0000	  52.5000	  -0.2174	  -1.8478	   1.1413	   9.0815	   7.0968	
  -7.5000	 -85.0000	  52.5000	  -0.1630	  -1.8478	   1.1413	   9.5563	   7.4625	
  -5.0000	 -85.0000	  52.5000	  -0.1087	  -1.8478	   1.1413	  10.0100	   7.8175	
  -2.5000	 -85.0000	  52.5000	  -0.0543	  -1.8478	   1.1413	  10.4637	   8.1725	
   0.0000	 -85.0000	  52.5000	   0.0000	  -1.8478	   1.1413	  10.9264	   8.5547	
   2.5000	 -85.0000	  52.5000	   0.0543	  -1.8478	   1.1413	  11.4231	   9.0412	
   5.0000	 -85.0000	  52.5000	   0.1087	  -1.8478	   1.1413	  11.9288	   9.5550	
   7.5000	 -85.0000	  52.5000	   0.1630	  -1.8478	   1.1413	  12.4344	  10.0687	
  10.0000	 -85.0000	  52.5000	   0.2174	  -1.8478	   1.1413	  12.9366	  10.5578	
  12.5000	 -85.0000	  52.5000	   0.2717	  -1.8478	   1.1413	  13.4256	  10.9519	
  15.0000	 -85.0000	  52.5000	   0.3261	  -1.8478	   1.1413	  13.9112	  11.3212	
  17.5000	 -85.0000	  52.5000	   0.3804	  -1.8478	   1.1413	  14.3969	  11.6906	
  20.0000	 -85.0000	  52.5000	   0.4348	  -1.8478	   1.1413	  14.8825	  12.0600	
 -20.0000	 -85.0000	  55.0000	  -0.4348	  -1.8478	   1.1957	   6.8200	   5.7100	
 -17.5000	 -85.0000	  55.0000	  -0.3804	  -1.8478	   1.1957	   7.1880	   6.0278	
 -15.0000	 -85.0000	  55.0000	  -0.3261	  -1.8478	   1.1957	   7.6364	   6.3797	
 -12.5000	 -85.0000	  55.0000	  -0.2717	  -1.8478	   1.1957	   8.1665	   6.7843	
 -10.0000	 -85.0000	  55.0000	  -0.2174	  -1.8478	   1.1957	   8.8100	   7.2800	
  -7.5000	 -85.0000	  55.0000	  -0.1630	  -1.8478	   1.1957	   9.0428	   7.4542	
  -5.0000	 -85.0000	  55.0000	  -0.1087	  -1.8478	   1.1957	   9.3794	   7.7150	
  -2.5000	 -85.0000	  55.0000	  -0.0543	  -1.8478	   1.1957	   9.8169	   8.0375	
   0.0000	 -85.0000	  55.0000	   0.0000	  -1.8478	   1.1957	  10.3900	   8.4200	
   2.5000	 -85.0000	  55.0000	   0.0543	  -1.8478	   1.1957	  10.6299	   8.7650	
   5.0000	 -85.0000	  55.0000	   0.1087	  -1.8478	   1.1957	  10.9878	   9.1625	
   7.5000	 -85.0000	  55.0000	   0.1630	  -1.8478	   1.1957	  11.4816	   9.6366	
  10.0000	 -85.0000	  55.0000	   0.2174	  -1.8478	   1.1957	  12.1800	  10.2400	
  12.5000	 -85.0000	  55.0000	   0.2717	  -1.8478	   1.1957	  12.0189	  10.1251	
  15.0000	 -85.0000	  55.0000	   0.3261	  -1.8478	   1.1957	  12.0831	  10.1506	
  17.5000	 -85.0000	  55.0000	   0.3804	  -1.8478	   1.1957	  12.2418	  10.2306	
  20.0000	 -85.0000	  55.0000	   0.4348	  -1.8478	   1.1957	  12.4000	  10.3000	
 -20.0000	 -85.0000	  57.5000	  -0.4348	  -1.8478	   1.2500	   6.1350	   5.6300	
 -17.5000	 -85.0000	  57.5000	  -0.3804	  -1.8478	   1.2500	   6.5056	   5.9144	
 -15.0000	 -85.0000	  57.5000	  -0.3261	  -1.8478	   1.2500	   6.8763	   6.1987	
 -12.5000	 -85.0000	  57.5000	  -0.2717	  -1.8478	   1.2500	   7.2469	   6.4831	
 -10.0000	 -85.0000	  57.5000	  -0.2174	  -1.8478	   1.2500	   7.6037	   6.7622	
  -7.5000	 -85.0000	  57.5000	  -0.1630	  -1.8478	   1.2500	   7.9075	   7.0212	
  -5.0000	 -85.0000	  57.5000	  -0.1087	  -1.8478	   1.2500	   8.1975	   7.2750	