Variables = "x [mm]"	"y [mm]"	"z [mm]"	"x/B"	"y/B"	"z/B"	"C*"	"C*std"	
Zone T = "East_y=29mm_Tec" I=17 J=25 F=POINT
 -20.0000	  29.0000	   5.0000	  -0.4348	   0.6304	   0.1087	  18.6200	  15.2300	
 -17.5000	  29.0000	   5.0000	  -0.3804	   0.6304	   0.1087	  19.3150	  17.8625	
 -15.0000	  29.0000	   5.0000	  -0.3261	   0.6304	   0.1087	  20.0100	  20.4950	
 -12.5000	  29.0000	   5.0000	  -0.2717	   0.6304	   0.1087	  20.7050	  23.1275	
 -10.0000	  29.0000	   5.0000	  -0.2174	   0.6304	   0.1087	  21.4000	  25.7600	
  -7.5000	  29.0000	   5.0000	  -0.1630	   0.6304	   0.1087	  26.0675	  36.8300	
  -5.0000	  29.0000	   5.0000	  -0.1087	   0.6304	   0.1087	  30.7350	  47.9000	
  -2.5000	  29.0000	   5.0000	  -0.0543	   0.6304	   0.1087	  35.4025	  58.9700	
   0.0000	  29.0000	   5.0000	   0.0000	   0.6304	   0.1087	  40.0700	  70.0400	
   2.5000	  29.0000	   5.0000	   0.0543	   0.6304	   0.1087	  52.6750	  75.8425	
   5.0000	  29.0000	   5.0000	   0.1087	   0.6304	   0.1087	  65.2800	  81.6450	
   7.5000	  29.0000	   5.0000	   0.1630	   0.6304	   0.1087	  77.8850	  87.4475	
  10.0000	  29.0000	   5.0000	   0.2174	   0.6304	   0.1087	  90.4900	  93.2500	
  12.5000	  29.0000	   5.0000	   0.2717	   0.6304	   0.1087	  93.3925	  82.8775	
  15.0000	  29.0000	   5.0000	   0.3261	   0.6304	   0.1087	  96.2950	  72.5050	
  17.5000	  29.0000	   5.0000	   0.3804	   0.6304	   0.1087	  99.1975	  62.1325	
  20.0000	  29.0000	   5.0000	   0.4348	   0.6304	   0.1087	 102.1000	  51.7600	
 -20.0000	  29.0000	   7.5000	  -0.4348	   0.6304	   0.1630	  17.9400	  14.3750	
 -17.5000	  29.0000	   7.5000	  -0.3804	   0.6304	   0.1630	  18.8975	  16.5987	
 -15.0000	  29.0000	   7.5000	  -0.3261	   0.6304	   0.1630	  19.8550	  18.8225	
 -12.5000	  29.0000	   7.5000	  -0.2717	   0.6304	   0.1630	  20.8125	  21.0463	
 -10.0000	  29.0000	   7.5000	  -0.2174	   0.6304	   0.1630	  22.2940	  24.4331	
  -7.5000	  29.0000	   7.5000	  -0.1630	   0.6304	   0.1630	  25.7844	  32.2788	
  -5.0000	  29.0000	   7.5000	  -0.1087	   0.6304	   0.1630	  29.7988	  41.2875	
  -2.5000	  29.0000	   7.5000	  -0.0543	   0.6304	   0.1630	  33.8131	  50.2963	
   0.0000	  29.0000	   7.5000	   0.0000	   0.6304	   0.1630	  38.8717	  58.6516	
   2.5000	  29.0000	   7.5000	   0.0543	   0.6304	   0.1630	  47.9331	  64.5025	
   5.0000	  29.0000	   7.5000	   0.1087	   0.6304	   0.1630	  58.0388	  69.7000	
   7.5000	  29.0000	   7.5000	   0.1630	   0.6304	   0.1630	  68.1444	  74.8975	
  10.0000	  29.0000	   7.5000	   0.2174	   0.6304	   0.1630	  77.1583	  77.9309	
  12.5000	  29.0000	   7.5000	   0.2717	   0.6304	   0.1630	  81.9875	  72.6688	
  15.0000	  29.0000	   7.5000	   0.3261	   0.6304	   0.1630	  85.7250	  65.2425	
  17.5000	  29.0000	   7.5000	   0.3804	   0.6304	   0.1630	  89.4625	  57.8162	
  20.0000	  29.0000	   7.5000	   0.4348	   0.6304	   0.1630	  93.2000	  50.3900	
 -20.0000	  29.0000	  10.0000	  -0.4348	   0.6304	   0.2174	  17.2600	  13.5200	
 -17.5000	  29.0000	  10.0000	  -0.3804	   0.6304	   0.2174	  18.4800	  15.3350	
 -15.0000	  29.0000	  10.0000	  -0.3261	   0.6304	   0.2174	  19.7000	  17.1500	
 -12.5000	  29.0000	  10.0000	  -0.2717	   0.6304	   0.2174	  20.9200	  18.9650	
 -10.0000	  29.0000	  10.0000	  -0.2174	   0.6304	   0.2174	  22.6158	  21.9206	
  -7.5000	  29.0000	  10.0000	  -0.1630	   0.6304	   0.2174	  25.5012	  27.7275	
  -5.0000	  29.0000	  10.0000	  -0.1087	   0.6304	   0.2174	  28.8625	  34.6750	
  -2.5000	  29.0000	  10.0000	  -0.0543	   0.6304	   0.2174	  32.2238	  41.6225	
   0.0000	  29.0000	  10.0000	   0.0000	   0.6304	   0.2174	  36.5283	  48.0467	
   2.5000	  29.0000	  10.0000	   0.0543	   0.6304	   0.2174	  43.1912	  53.1625	
   5.0000	  29.0000	  10.0000	   0.1087	   0.6304	   0.2174	  50.7975	  57.7550	
   7.5000	  29.0000	  10.0000	   0.1630	   0.6304	   0.2174	  58.4037	  62.3475	
  10.0000	  29.0000	  10.0000	   0.2174	   0.6304	   0.2174	  65.3358	  64.9239	
  12.5000	  29.0000	  10.0000	   0.2717	   0.6304	   0.2174	  70.5825	  62.4600	
  15.0000	  29.0000	  10.0000	   0.3261	   0.6304	   0.2174	  75.1550	  57.9800	
  17.5000	  29.0000	  10.0000	   0.3804	   0.6304	   0.2174	  79.7275	  53.5000	
  20.0000	  29.0000	  10.0000	   0.4348	   0.6304	   0.2174	  84.3000	  49.0200	
 -20.0000	  29.0000	  12.5000	  -0.4348	   0.6304	   0.2717	  16.5800	  12.6650	
 -17.5000	  29.0000	  12.5000	  -0.3804	   0.6304	   0.2717	  18.0625	  14.0713	
 -15.0000	  29.0000	  12.5000	  -0.3261	   0.6304	   0.2717	  19.5450	  15.4775	
 -12.5000	  29.0000	  12.5000	  -0.2717	   0.6304	   0.2717	  21.0275	  16.8838	
 -10.0000	  29.0000	  12.5000	  -0.2174	   0.6304	   0.2717	  22.7201	  18.8866	
  -7.5000	  29.0000	  12.5000	  -0.1630	   0.6304	   0.2717	  25.2181	  23.1763	
  -5.0000	  29.0000	  12.5000	  -0.1087	   0.6304	   0.2717	  27.9262	  28.0625	
  -2.5000	  29.0000	  12.5000	  -0.0543	   0.6304	   0.2717	  30.6344	  32.9488	
   0.0000	  29.0000	  12.5000	   0.0000	   0.6304	   0.2717	  33.7537	  37.6809	
   2.5000	  29.0000	  12.5000	   0.0543	   0.6304	   0.2717	  38.4494	  41.8225	
   5.0000	  29.0000	  12.5000	   0.1087	   0.6304	   0.2717	  43.5562	  45.8100	
   7.5000	  29.0000	  12.5000	   0.1630	   0.6304	   0.2717	  48.6631	  49.7975	
  10.0000	  29.0000	  12.5000	   0.2174	   0.6304	   0.2717	  53.8215	  52.8385	
  12.5000	  29.0000	  12.5000	   0.2717	   0.6304	   0.2717	  59.1775	  52.2512	
  15.0000	  29.0000	  12.5000	   0.3261	   0.6304	   0.2717	  64.5850	  50.7175	
  17.5000	  29.0000	  12.5000	   0.3804	   0.6304	   0.2717	  69.9925	  49.1837	
  20.0000	  29.0000	  12.5000	   0.4348	   0.6304	   0.2717	  75.4000	  47.6500	
 -20.0000	  29.0000	  15.0000	  -0.4348	   0.6304	   0.3261	  15.9000	  11.8100	
 -17.5000	  29.0000	  15.0000	  -0.3804	   0.6304	   0.3261	  17.7067	  13.0134	
 -15.0000	  29.0000	  15.0000	  -0.3261	   0.6304	   0.3261	  19.4406	  14.1772	
 -12.5000	  29.0000	  15.0000	  -0.2717	   0.6304	   0.3261	  21.1513	  15.1709	
 -10.0000	  29.0000	  15.0000	  -0.2174	   0.6304	   0.3261	  22.8800	  15.8000	
  -7.5000	  29.0000	  15.0000	  -0.1630	   0.6304	   0.3261	  25.0354	  19.3647	
  -5.0000	  29.0000	  15.0000	  -0.1087	   0.6304	   0.3261	  27.2586	  22.7850	
  -2.5000	  29.0000	  15.0000	  -0.0543	   0.6304	   0.3261	  29.3590	  25.5950	
   0.0000	  29.0000	  15.0000	   0.0000	   0.6304	   0.3261	  31.1000	  27.1000	
   2.5000	  29.0000	  15.0000	   0.0543	   0.6304	   0.3261	  34.5792	  32.1960	
   5.0000	  29.0000	  15.0000	   0.1087	   0.6304	   0.3261	  38.0294	  36.2203	
   7.5000	  29.0000	  15.0000	   0.1630	   0.6304	   0.3261	  40.6959	  39.1678	
  10.0000	  29.0000	  15.0000	   0.2174	   0.6304	   0.3261	  41.5300	  40.6300	
  12.5000	  29.0000	  15.0000	   0.2717	   0.6304	   0.3261	  49.6576	  43.4890	
  15.0000	  29.0000	  15.0000	   0.3261	   0.6304	   0.3261	  56.0189	  44.5819	
  17.5000	  29.0000	  15.0000	   0.3804	   0.6304	   0.3261	  61.4641	  45.1597	
  20.0000	  29.0000	  15.0000	   0.4348	   0.6304	   0.3261	  66.5000	  46.2800	
 -20.0000	  29.0000	  17.5000	  -0.4348	   0.6304	   0.3804	  15.7125	  11.6825	
 -17.5000	  29.0000	  17.5000	  -0.3804	   0.6304	   0.3804	  17.5875	  12.7450	
 -15.0000	  29.0000	  17.5000	  -0.3261	   0.6304	   0.3804	  19.4625	  13.8075	
 -12.5000	  29.0000	  17.5000	  -0.2717	   0.6304	   0.3804	  21.3375	  14.8700	
 -10.0000	  29.0000	  17.5000	  -0.2174	   0.6304	   0.3804	  23.2382	  16.1714	
  -7.5000	  29.0000	  17.5000	  -0.1630	   0.6304	   0.3804	  25.2375	  18.3888	
  -5.0000	  29.0000	  17.5000	  -0.1087	   0.6304	   0.3804	  27.2625	  20.8450	
  -2.5000	  29.0000	  17.5000	  -0.0543	   0.6304	   0.3804	  29.2875	  23.3013	
   0.0000	  29.0000	  17.5000	   0.0000	   0.6304	   0.3804	  31.4348	  25.9160	
   2.5000	  29.0000	  17.5000	   0.0543	   0.6304	   0.3804	  34.0506	  29.1381	
   5.0000	  29.0000	  17.5000	   0.1087	   0.6304	   0.3804	  36.7888	  32.5187	
   7.5000	  29.0000	  17.5000	   0.1630	   0.6304	   0.3804	  39.5269	  35.8994	
  10.0000	  29.0000	  17.5000	   0.2174	   0.6304	   0.3804	  42.6697	  38.8705	
  12.5000	  29.0000	  17.5000	   0.2717	   0.6304	   0.3804	  47.3637	  40.2719	
  15.0000	  29.0000	  17.5000	   0.3261	   0.6304	   0.3804	  52.4625	  41.2638	
  17.5000	  29.0000	  17.5000	   0.3804	   0.6304	   0.3804	  57.5613	  42.2556	
  20.0000	  29.0000	  17.5000	   0.4348	   0.6304	   0.3804	  62.6600	  43.2475	
 -20.0000	  29.0000	  20.0000	  -0.4348	   0.6304	   0.4348	  15.5250	  11.5550	
 -17.5000	  29.0000	  20.0000	  -0.3804	   0.6304	   0.4348	  17.5300	  12.6825	
 -15.0000	  29.0000	  20.0000	  -0.3261	   0.6304	   0.4348	  19.5350	  13.8100	
 -12.5000	  29.0000	  20.0000	  -0.2717	   0.6304	   0.4348	  21.5400	  14.9375	
 -10.0000	  29.0000	  20.0000	  -0.2174	   0.6304	   0.4348	  23.5428	  16.2783	
  -7.5000	  29.0000	  20.0000	  -0.1630	   0.6304	   0.4348	  25.5400	  18.1525	
  -5.0000	  29.0000	  20.0000	  -0.1087	   0.6304	   0.4348	  27.5350	  20.2400	
  -2.5000	  29.0000	  20.0000	  -0.0543	   0.6304	   0.4348	  29.5300	  22.3275	
   0.0000	  29.0000	  20.0000	   0.0000	   0.6304	   0.4348	  31.7192	  24.7019	
   2.5000	  29.0000	  20.0000	   0.0543	   0.6304	   0.4348	  34.3938	  27.7937	
   5.0000	  29.0000	  20.0000	   0.1087	   0.6304	   0.4348	  37.2625	  31.1725	
   7.5000	  29.0000	  20.0000	   0.1630	   0.6304	   0.4348	  40.1312	  34.5512	
  10.0000	  29.0000	  20.0000	   0.2174	   0.6304	   0.4348	  43.2414	  37.3061	
  12.5000	  29.0000	  20.0000	   0.2717	   0.6304	   0.4348	  46.9550	  38.5012	
  15.0000	  29.0000	  20.0000	   0.3261	   0.6304	   0.4348	  50.9100	  39.0725	
  17.5000	  29.0000	  20.0000	   0.3804	   0.6304	   0.4348	  54.8650	  39.6438	
  20.0000	  29.0000	  20.0000	   0.4348	   0.6304	   0.4348	  58.8200	  40.2150	
 -20.0000	  29.0000	  22.5000	  -0.4348	   0.6304	   0.4891	  15.3375	  11.4275	
 -17.5000	  29.0000	  22.5000	  -0.3804	   0.6304	   0.4891	  17.4725	  12.6200	
 -15.0000	  29.0000	  22.5000	  -0.3261	   0.6304	   0.4891	  19.6075	  13.8125	
 -12.5000	  29.0000	  22.5000	  -0.2717	   0.6304	   0.4891	  21.7425	  15.0050	
 -10.0000	  29.0000	  22.5000	  -0.2174	   0.6304	   0.4891	  23.8484	  16.2877	
  -7.5000	  29.0000	  22.5000	  -0.1630	   0.6304	   0.4891	  25.8425	  17.9162	
  -5.0000	  29.0000	  22.5000	  -0.1087	   0.6304	   0.4891	  27.8075	  19.6350	
  -2.5000	  29.0000	  22.5000	  -0.0543	   0.6304	   0.4891	  29.7725	  21.3538	
   0.0000	  29.0000	  22.5000	   0.0000	   0.6304	   0.4891	  31.9148	  23.3567	
   2.5000	  29.0000	  22.5000	   0.0543	   0.6304	   0.4891	  34.7369	  26.4494	
   5.0000	  29.0000	  22.5000	   0.1087	   0.6304	   0.4891	  37.7362	  29.8262	
   7.5000	  29.0000	  22.5000	   0.1630	   0.6304	   0.4891	  40.7356	  33.2031	
  10.0000	  29.0000	  22.5000	   0.2174	   0.6304	   0.4891	  43.7028	  36.0269	
  12.5000	  29.0000	  22.5000	   0.2717	   0.6304	   0.4891	  46.5463	  36.7306	
  15.0000	  29.0000	  22.5000	   0.3261	   0.6304	   0.4891	  49.3575	  36.8812	
  17.5000	  29.0000	  22.5000	   0.3804	   0.6304	   0.4891	  52.1687	  37.0319	
  20.0000	  29.0000	  22.5000	   0.4348	   0.6304	   0.4891	  54.9800	  37.1825	
 -20.0000	  29.0000	  25.0000	  -0.4348	   0.6304	   0.5435	  15.1500	  11.3000	
 -17.5000	  29.0000	  25.0000	  -0.3804	   0.6304	   0.5435	  17.4192	  12.5994	
 -15.0000	  29.0000	  25.0000	  -0.3261	   0.6304	   0.5435	  19.6397	  13.8392	
 -12.5000	  29.0000	  25.0000	  -0.2717	   0.6304	   0.5435	  21.8787	  15.0679	
 -10.0000	  29.0000	  25.0000	  -0.2174	   0.6304	   0.5435	  24.2100	  16.3300	
  -7.5000	  29.0000	  25.0000	  -0.1630	   0.6304	   0.5435	  26.0788	  17.7310	
  -5.0000	  29.0000	  25.0000	  -0.1087	   0.6304	   0.5435	  28.0400	  19.1983	
  -2.5000	  29.0000	  25.0000	  -0.0543	   0.6304	   0.5435	  30.0195	  20.5887	
   0.0000	  29.0000	  25.0000	   0.0000	   0.6304	   0.5435	  31.9500	  21.7300	
   2.5000	  29.0000	  25.0000	   0.0543	   0.6304	   0.5435	  35.0094	  25.2546	
   5.0000	  29.0000	  25.0000	   0.1087	   0.6304	   0.5435	  37.9753	  28.4950	
   7.5000	  29.0000	  25.0000	   0.1630	   0.6304	   0.5435	  41.0485	  31.7286	
  10.0000	  29.0000	  25.0000	   0.2174	   0.6304	   0.5435	  44.4700	  35.2300	
  12.5000	  29.0000	  25.0000	   0.2717	   0.6304	   0.5435	  46.0039	  34.8331	
  15.0000	  29.0000	  25.0000	   0.3261	   0.6304	   0.5435	  47.9797	  34.7039	
  17.5000	  29.0000	  25.0000	   0.3804	   0.6304	   0.5435	  49.8757	  34.5683	
  20.0000	  29.0000	  25.0000	   0.4348	   0.6304	   0.5435	  51.1400	  34.1500	
 -20.0000	  29.0000	  27.5000	  -0.4348	   0.6304	   0.5978	  15.1925	  11.5525	
 -17.5000	  29.0000	  27.5000	  -0.3804	   0.6304	   0.5978	  17.3819	  12.7394	
 -15.0000	  29.0000	  27.5000	  -0.3261	   0.6304	   0.5978	  19.5712	  13.9262	
 -12.5000	  29.0000	  27.5000	  -0.2717	   0.6304	   0.5978	  21.7606	  15.1131	
 -10.0000	  29.0000	  27.5000	  -0.2174	   0.6304	   0.5978	  23.9366	  16.3436	
  -7.5000	  29.0000	  27.5000	  -0.1630	   0.6304	   0.5978	  26.0613	  17.7412	
  -5.0000	  29.0000	  27.5000	  -0.1087	   0.6304	   0.5978	  28.1725	  19.1825	
  -2.5000	  29.0000	  27.5000	  -0.0543	   0.6304	   0.5978	  30.2838	  20.6238	
   0.0000	  29.0000	  27.5000	   0.0000	   0.6304	   0.5978	  32.4816	  22.2582	
   2.5000	  29.0000	  27.5000	   0.0543	   0.6304	   0.5978	  35.0112	  24.6331	
   5.0000	  29.0000	  27.5000	   0.1087	   0.6304	   0.5978	  37.6275	  27.2012	
   7.5000	  29.0000	  27.5000	   0.1630	   0.6304	   0.5978	  40.2437	  29.7694	
  10.0000	  29.0000	  27.5000	   0.2174	   0.6304	   0.5978	  42.7697	  31.9164	
  12.5000	  29.0000	  27.5000	   0.2717	   0.6304	   0.5978	  44.9494	  32.4494	
  15.0000	  29.0000	  27.5000	   0.3261	   0.6304	   0.5978	  47.0388	  32.5613	
  17.5000	  29.0000	  27.5000	   0.3804	   0.6304	   0.5978	  49.1281	  32.6731	
  20.0000	  29.0000	  27.5000	   0.4348	   0.6304	   0.5978	  51.2175	  32.7850	
 -20.0000	  29.0000	  30.0000	  -0.4348	   0.6304	   0.6522	  15.2350	  11.8050	
 -17.5000	  29.0000	  30.0000	  -0.3804	   0.6304	   0.6522	  17.3487	  12.9213	
 -15.0000	  29.0000	  30.0000	  -0.3261	   0.6304	   0.6522	  19.4625	  14.0375	
 -12.5000	  29.0000	  30.0000	  -0.2717	   0.6304	   0.6522	  21.5762	  15.1537	
 -10.0000	  29.0000	  30.0000	  -0.2174	   0.6304	   0.6522	  23.7286	  16.3625	
  -7.5000	  29.0000	  30.0000	  -0.1630	   0.6304	   0.6522	  25.9775	  17.8025	
  -5.0000	  29.0000	  30.0000	  -0.1087	   0.6304	   0.6522	  28.2650	  19.3350	
  -2.5000	  29.0000	  30.0000	  -0.0543	   0.6304	   0.6522	  30.5525	  20.8675	
   0.0000	  29.0000	  30.0000	   0.0000	   0.6304	   0.6522	  32.7989	  22.4508	
   2.5000	  29.0000	  30.0000	   0.0543	   0.6304	   0.6522	  34.9425	  24.1613	
   5.0000	  29.0000	  30.0000	   0.1087	   0.6304	   0.6522	  37.0450	  25.9225	
   7.5000	  29.0000	  30.0000	   0.1630	   0.6304	   0.6522	  39.1475	  27.6837	
  10.0000	  29.0000	  30.0000	   0.2174	   0.6304	   0.6522	  41.3408	  29.1633	
  12.5000	  29.0000	  30.0000	   0.2717	   0.6304	   0.6522	  43.7612	  29.9387	
  15.0000	  29.0000	  30.0000	   0.3261	   0.6304	   0.6522	  46.2725	  30.4325	
  17.5000	  29.0000	  30.0000	   0.3804	   0.6304	   0.6522	  48.7838	  30.9263	
  20.0000	  29.0000	  30.0000	   0.4348	   0.6304	   0.6522	  51.2950	  31.4200	
 -20.0000	  29.0000	  32.5000	  -0.4348	   0.6304	   0.7065	  15.2775	  12.0575	
 -17.5000	  29.0000	  32.5000	  -0.3804	   0.6304	   0.7065	  17.3156	  13.1031	
 -15.0000	  29.0000	  32.5000	  -0.3261	   0.6304	   0.7065	  19.3537	  14.1487	
 -12.5000	  29.0000	  32.5000	  -0.2717	   0.6304	   0.7065	  21.3919	  15.1944	
 -10.0000	  29.0000	  32.5000	  -0.2174	   0.6304	   0.7065	  23.5030	  16.3391	
  -7.5000	  29.0000	  32.5000	  -0.1630	   0.6304	   0.7065	  25.8938	  17.8638	
  -5.0000	  29.0000	  32.5000	  -0.1087	   0.6304	   0.7065	  28.3575	  19.4875	
  -2.5000	  29.0000	  32.5000	  -0.0543	   0.6304	   0.7065	  30.8212	  21.1112	
   0.0000	  29.0000	  32.5000	   0.0000	   0.6304	   0.7065	  33.1350	  22.6203	
   2.5000	  29.0000	  32.5000	   0.0543	   0.6304	   0.7065	  34.8738	  23.6894	
   5.0000	  29.0000	  32.5000	   0.1087	   0.6304	   0.7065	  36.4625	  24.6437	
   7.5000	  29.0000	  32.5000	   0.1630	   0.6304	   0.7065	  38.0512	  25.5981	
  10.0000	  29.0000	  32.5000	   0.2174	   0.6304	   0.7065	  39.8705	  26.5390	
  12.5000	  29.0000	  32.5000	   0.2717	   0.6304	   0.7065	  42.5731	  27.4281	
  15.0000	  29.0000	  32.5000	   0.3261	   0.6304	   0.7065	  45.5063	  28.3038	
  17.5000	  29.0000	  32.5000	   0.3804	   0.6304	   0.7065	  48.4394	  29.1794	
  20.0000	  29.0000	  32.5000	   0.4348	   0.6304	   0.7065	  51.3725	  30.0550	
 -20.0000	  29.0000	  35.0000	  -0.4348	   0.6304	   0.7609	  15.3200	  12.3100	
 -17.5000	  29.0000	  35.0000	  -0.3804	   0.6304	   0.7609	  16.9742	  13.0524	
 -15.0000	  29.0000	  35.0000	  -0.3261	   0.6304	   0.7609	  18.9575	  14.0819	
 -12.5000	  29.0000	  35.0000	  -0.2717	   0.6304	   0.7609	  21.0722	  15.1929	
 -10.0000	  29.0000	  35.0000	  -0.2174	   0.6304	   0.7609	  23.1700	  16.2100	
  -7.5000	  29.0000	  35.0000	  -0.1630	   0.6304	   0.7609	  25.6718	  17.9034	
  -5.0000	  29.0000	  35.0000	  -0.1087	   0.6304	   0.7609	  28.1550	  19.5150	
  -2.5000	  29.0000	  35.0000	  -0.0543	   0.6304	   0.7609	  30.7731	  21.1838	
   0.0000	  29.0000	  35.0000	   0.0000	   0.6304	   0.7609	  33.7300	  23.0700	
   2.5000	  29.0000	  35.0000	   0.0543	   0.6304	   0.7609	  34.5202	  23.1454	
   5.0000	  29.0000	  35.0000	   0.1087	   0.6304	   0.7609	  35.6683	  23.4969	
   7.5000	  29.0000	  35.0000	   0.1630	   0.6304	   0.7609	  36.9132	  23.7882	
  10.0000	  29.0000	  35.0000	   0.2174	   0.6304	   0.7609	  38.0300	  23.6600	
  12.5000	  29.0000	  35.0000	   0.2717	   0.6304	   0.7609	  41.2760	  25.2298	
  15.0000	  29.0000	  35.0000	   0.3261	   0.6304	   0.7609	  44.3542	  26.4019	
  17.5000	  29.0000	  35.0000	   0.3804	   0.6304	   0.7609	  47.6087	  27.4703	
  20.0000	  29.0000	  35.0000	   0.4348	   0.6304	   0.7609	  51.4500	  28.6900	
 -20.0000	  29.0000	  37.5000	  -0.4348	   0.6304	   0.8152	  13.0600	  10.6500	
 -17.5000	  29.0000	  37.5000	  -0.3804	   0.6304	   0.8152	  15.4512	  12.1100	
 -15.0000	  29.0000	  37.5000	  -0.3261	   0.6304	   0.8152	  17.8425	  13.5700	
 -12.5000	  29.0000	  37.5000	  -0.2717	   0.6304	   0.8152	  20.2338	  15.0300	
 -10.0000	  29.0000	  37.5000	  -0.2174	   0.6304	   0.8152	  22.6085	  16.4746	
  -7.5000	  29.0000	  37.5000	  -0.1630	   0.6304	   0.8152	  24.9200	  17.8600	
  -5.0000	  29.0000	  37.5000	  -0.1087	   0.6304	   0.8152	  27.2150	  19.2300	
  -2.5000	  29.0000	  37.5000	  -0.0543	   0.6304	   0.8152	  29.5100	  20.6000	
   0.0000	  29.0000	  37.5000	   0.0000	   0.6304	   0.8152	  31.6293	  21.7960	
   2.5000	  29.0000	  37.5000	   0.0543	   0.6304	   0.8152	  33.0750	  22.3250	
   5.0000	  29.0000	  37.5000	   0.1087	   0.6304	   0.8152	  34.3450	  22.6800	
   7.5000	  29.0000	  37.5000	   0.1630	   0.6304	   0.8152	  35.6150	  23.0350	
  10.0000	  29.0000	  37.5000	   0.2174	   0.6304	   0.8152	  37.1261	  23.4729	
  12.5000	  29.0000	  37.5000	   0.2717	   0.6304	   0.8152	  39.5613	  24.2288	
  15.0000	  29.0000	  37.5000	   0.3261	   0.6304	   0.8152	  42.2375	  25.0675	
  17.5000	  29.0000	  37.5000	   0.3804	   0.6304	   0.8152	  44.9138	  25.9063	
  20.0000	  29.0000	  37.5000	   0.4348	   0.6304	   0.8152	  47.5900	  26.7450	
 -20.0000	  29.0000	  40.0000	  -0.4348	   0.6304	   0.8696	  10.8000	   8.9900	
 -17.5000	  29.0000	  40.0000	  -0.3804	   0.6304	   0.8696	  13.6200	  10.9350	
 -15.0000	  29.0000	  40.0000	  -0.3261	   0.6304	   0.8696	  16.4400	  12.8800	
 -12.5000	  29.0000	  40.0000	  -0.2717	   0.6304	   0.8696	  19.2600	  14.8250	
 -10.0000	  29.0000	  40.0000	  -0.2174	   0.6304	   0.8696	  21.8867	  16.5656	
  -7.5000	  29.0000	  40.0000	  -0.1630	   0.6304	   0.8696	  24.0300	  17.7950	
  -5.0000	  29.0000	  40.0000	  -0.1087	   0.6304	   0.8696	  25.9800	  18.8200	
  -2.5000	  29.0000	  40.0000	  -0.0543	   0.6304	   0.8696	  27.9300	  19.8450	
   0.0000	  29.0000	  40.0000	   0.0000	   0.6304	   0.8696	  29.7722	  20.7672	
   2.5000	  29.0000	  40.0000	   0.0543	   0.6304	   0.8696	  31.3450	  21.4325	
   5.0000	  29.0000	  40.0000	   0.1087	   0.6304	   0.8696	  32.8100	  21.9950	
   7.5000	  29.0000	  40.0000	   0.1630	   0.6304	   0.8696	  34.2750	  22.5575	
  10.0000	  29.0000	  40.0000	   0.2174	   0.6304	   0.8696	  35.8583	  23.0883	
  12.5000	  29.0000	  40.0000	   0.2717	   0.6304	   0.8696	  37.7375	  23.5400	
  15.0000	  29.0000	  40.0000	   0.3261	   0.6304	   0.8696	  39.7350	  23.9600	
  17.5000	  29.0000	  40.0000	   0.3804	   0.6304	   0.8696	  41.7325	  24.3800	
  20.0000	  29.0000	  40.0000	   0.4348	   0.6304	   0.8696	  43.7300	  24.8000	
 -20.0000	  29.0000	  42.5000	  -0.4348	   0.6304	   0.9239	   8.5400	   7.3300	
 -17.5000	  29.0000	  42.5000	  -0.3804	   0.6304	   0.9239	  11.7888	   9.7600	
 -15.0000	  29.0000	  42.5000	  -0.3261	   0.6304	   0.9239	  15.0375	  12.1900	
 -12.5000	  29.0000	  42.5000	  -0.2717	   0.6304	   0.9239	  18.2862	  14.6200	
 -10.0000	  29.0000	  42.5000	  -0.2174	   0.6304	   0.9239	  21.2532	  16.7500	
  -7.5000	  29.0000	  42.5000	  -0.1630	   0.6304	   0.9239	  23.1400	  17.7300	
  -5.0000	  29.0000	  42.5000	  -0.1087	   0.6304	   0.9239	  24.7450	  18.4100	
  -2.5000	  29.0000	  42.5000	  -0.0543	   0.6304	   0.9239	  26.3500	  19.0900	
   0.0000	  29.0000	  42.5000	   0.0000	   0.6304	   0.9239	  27.9644	  19.7854	
   2.5000	  29.0000	  42.5000	   0.0543	   0.6304	   0.9239	  29.6150	  20.5400	
   5.0000	  29.0000	  42.5000	   0.1087	   0.6304	   0.9239	  31.2750	  21.3100	
   7.5000	  29.0000	  42.5000	   0.1630	   0.6304	   0.9239	  32.9350	  22.0800	
  10.0000	  29.0000	  42.5000	   0.2174	   0.6304	   0.9239	  34.5365	  22.7182	
  12.5000	  29.0000	  42.5000	   0.2717	   0.6304	   0.9239	  35.9138	  22.8513	
  15.0000	  29.0000	  42.5000	   0.3261	   0.6304	   0.9239	  37.2325	  22.8525	
  17.5000	  29.0000	  42.5000	   0.3804	   0.6304	   0.9239	  38.5512	  22.8538	
  20.0000	  29.0000	  42.5000	   0.4348	   0.6304	   0.9239	  39.8700	  22.8550	
 -20.0000	  29.0000	  45.0000	  -0.4348	   0.6304	   0.9783	   6.2800	   5.6700	
 -17.5000	  29.0000	  45.0000	  -0.3804	   0.6304	   0.9783	  10.2073	   8.9012	
 -15.0000	  29.0000	  45.0000	  -0.3261	   0.6304	   0.9783	  13.6931	  11.6842	
 -12.5000	  29.0000	  45.0000	  -0.2717	   0.6304	   0.9783	  17.1523	  14.3830	
 -10.0000	  29.0000	  45.0000	  -0.2174	   0.6304	   0.9783	  20.9900	  17.3300	
  -7.5000	  29.0000	  45.0000	  -0.1630	   0.6304	   0.9783	  21.8940	  17.5075	
  -5.0000	  29.0000	  45.0000	  -0.1087	   0.6304	   0.9783	  23.0603	  17.8589	
  -2.5000	  29.0000	  45.0000	  -0.0543	   0.6304	   0.9783	  24.4322	  18.2748	
   0.0000	  29.0000	  45.0000	   0.0000	   0.6304	   0.9783	  26.0300	  18.6700	
   2.5000	  29.0000	  45.0000	   0.0543	   0.6304	   0.9783	  27.4222	  19.5506	
   5.0000	  29.0000	  45.0000	   0.1087	   0.6304	   0.9783	  28.9664	  20.3889	
   7.5000	  29.0000	  45.0000	   0.1630	   0.6304	   0.9783	  30.8642	  21.3351	
  10.0000	  29.0000	  45.0000	   0.2174	   0.6304	   0.9783	  33.4500	  22.5800	
  12.5000	  29.0000	  45.0000	   0.2717	   0.6304	   0.9783	  33.2849	  21.8717	
  15.0000	  29.0000	  45.0000	   0.3261	   0.6304	   0.9783	  33.7639	  21.4483	
  17.5000	  29.0000	  45.0000	   0.3804	   0.6304	   0.9783	  34.6845	  21.1606	
  20.0000	  29.0000	  45.0000	   0.4348	   0.6304	   0.9783	  36.0100	  20.9100	
 -20.0000	  29.0000	  47.5000	  -0.4348	   0.6304	   1.0326	   6.6725	   6.8700	
 -17.5000	  29.0000	  47.5000	  -0.3804	   0.6304	   1.0326	   9.5831	   9.2544	
 -15.0000	  29.0000	  47.5000	  -0.3261	   0.6304	   1.0326	  12.4938	  11.6387	
 -12.5000	  29.0000	  47.5000	  -0.2717	   0.6304	   1.0326	  15.4044	  14.0231	
 -10.0000	  29.0000	  47.5000	  -0.2174	   0.6304	   1.0326	  17.9820	  16.0457	
  -7.5000	  29.0000	  47.5000	  -0.1630	   0.6304	   1.0326	  19.2831	  16.6812	
  -5.0000	  29.0000	  47.5000	  -0.1087	   0.6304	   1.0326	  20.2513	  16.9550	
  -2.5000	  29.0000	  47.5000	  -0.0543	   0.6304	   1.0326	  21.2194	  17.2288	
   0.0000	  29.0000	  47.5000	   0.0000	   0.6304	   1.0326	  22.2389	  17.5734	
   2.5000	  29.0000	  47.5000	   0.0543	   0.6304	   1.0326	  23.4556	  18.1900	
   5.0000	  29.0000	  47.5000	   0.1087	   0.6304	   1.0326	  24.7238	  18.8775	
   7.5000	  29.0000	  47.5000	   0.1630	   0.6304	   1.0326	  25.9919	  19.5650	
  10.0000	  29.0000	  47.5000	   0.2174	   0.6304	   1.0326	  27.0958	  20.0532	
  12.5000	  29.0000	  47.5000	   0.2717	   0.6304	   1.0326	  27.5700	  19.7775	
  15.0000	  29.0000	  47.5000	   0.3261	   0.6304	   1.0326	  27.8800	  19.3025	
  17.5000	  29.0000	  47.5000	   0.3804	   0.6304	   1.0326	  28.1900	  18.8275	
  20.0000	  29.0000	  47.5000	   0.4348	   0.6304	   1.0326	  28.5000	  18.3525	
 -20.0000	  29.0000	  50.0000	  -0.4348	   0.6304	   1.0870	   7.0650	   8.0700	
 -17.5000	  29.0000	  50.0000	  -0.3804	   0.6304	   1.0870	   9.2087	   9.9237	
 -15.0000	  29.0000	  50.0000	  -0.3261	   0.6304	   1.0870	  11.3525	  11.7775	
 -12.5000	  29.0000	  50.0000	  -0.2717	   0.6304	   1.0870	  13.4962	  13.6312	
 -10.0000	  29.0000	  50.0000	  -0.2174	   0.6304	   1.0870	  15.3139	  15.1203	
  -7.5000	  29.0000	  50.0000	  -0.1630	   0.6304	   1.0870	  16.3162	  15.6975	
  -5.0000	  29.0000	  50.0000	  -0.1087	   0.6304	   1.0870	  16.9925	  15.9100	
  -2.5000	  29.0000	  50.0000	  -0.0543	   0.6304	   1.0870	  17.6687	  16.1225	
   0.0000	  29.0000	  50.0000	   0.0000	   0.6304	   1.0870	  18.3461	  16.3761	
   2.5000	  29.0000	  50.0000	   0.0543	   0.6304	   1.0870	  19.0262	  16.7325	
   5.0000	  29.0000	  50.0000	   0.1087	   0.6304	   1.0870	  19.7075	  17.1300	
   7.5000	  29.0000	  50.0000	   0.1630	   0.6304	   1.0870	  20.3888	  17.5275	
  10.0000	  29.0000	  50.0000	   0.2174	   0.6304	   1.0870	  20.9142	  17.7183	
  12.5000	  29.0000	  50.0000	   0.2717	   0.6304	   1.0870	  21.0500	  17.3925	
  15.0000	  29.0000	  50.0000	   0.3261	   0.6304	   1.0870	  21.0300	  16.8600	
  17.5000	  29.0000	  50.0000	   0.3804	   0.6304	   1.0870	  21.0100	  16.3275	
  20.0000	  29.0000	  50.0000	   0.4348	   0.6304	   1.0870	  20.9900	  15.7950	
 -20.0000	  29.0000	  52.5000	  -0.4348	   0.6304	   1.1413	   7.4575	   9.2700	
 -17.5000	  29.0000	  52.5000	  -0.3804	   0.6304	   1.1413	   8.8344	  10.5931	
 -15.0000	  29.0000	  52.5000	  -0.3261	   0.6304	   1.1413	  10.2112	  11.9162	
 -12.5000	  29.0000	  52.5000	  -0.2717	   0.6304	   1.1413	  11.5881	  13.2394	
 -10.0000	  29.0000	  52.5000	  -0.2174	   0.6304	   1.1413	  12.7949	  14.3616	
  -7.5000	  29.0000	  52.5000	  -0.1630	   0.6304	   1.1413	  13.3494	  14.7138	
  -5.0000	  29.0000	  52.5000	  -0.1087	   0.6304	   1.1413	  13.7337	  14.8650	
  -2.5000	  29.0000	  52.5000	  -0.0543	   0.6304	   1.1413	  14.1181	  15.0162	
   0.0000	  29.0000	  52.5000	   0.0000	   0.6304	   1.1413	  14.4528	  15.1600	
   2.5000	  29.0000	  52.5000	   0.0543	   0.6304	   1.1413	  14.5969	  15.2750	
   5.0000	  29.0000	  52.5000	   0.1087	   0.6304	   1.1413	  14.6912	  15.3825	
   7.5000	  29.0000	  52.5000	   0.1630	   0.6304	   1.1413	  14.7856	  15.4900	
  10.0000	  29.0000	  52.5000	   0.2174	   0.6304	   1.1413	  14.8038	  15.4779	
  12.5000	  29.0000	  52.5000	   0.2717	   0.6304	   1.1413	  14.5300	  15.0075	
  15.0000	  29.0000	  52.5000	   0.3261	   0.6304	   1.1413	  14.1800	  14.4175	
  17.5000	  29.0000	  52.5000	   0.3804	   0.6304	   1.1413	  13.8300	  13.8275	
  20.0000	  29.0000	  52.5000	   0.4348	   0.6304	   1.1413	  13.4800	  13.2375	
 -20.0000	  29.0000	  55.0000	  -0.4348	   0.6304	   1.1957	   7.8500	  10.4700	
 -17.5000	  29.0000	  55.0000	  -0.3804	   0.6304	   1.1957	   8.3287	  10.9919	
 -15.0000	  29.0000	  55.0000	  -0.3261	   0.6304	   1.1957	   9.0242	  11.7750	
 -12.5000	  29.0000	  55.0000	  -0.2717	   0.6304	   1.1957	   9.7405	  12.6861	
 -10.0000	  29.0000	  55.0000	  -0.2174	   0.6304	   1.1957	  10.2900	  13.6400	
  -7.5000	  29.0000	  55.0000	  -0.1630	   0.6304	   1.1957	  10.5751	  13.6111	
  -5.0000	  29.0000	  55.0000	  -0.1087	   0.6304	   1.1957	  10.7717	  13.6500	
  -2.5000	  29.0000	  55.0000	  -0.0543	   0.6304	   1.1957	  10.8326	  13.7666	
   0.0000	  29.0000	  55.0000	   0.0000	   0.6304	   1.1957	  10.6600	  14.0000	
   2.5000	  29.0000	  55.0000	   0.0543	   0.6304	   1.1957	  10.5858	  13.7141	
   5.0000	  29.0000	  55.0000	   0.1087	   0.6304	   1.1957	  10.3689	  13.5686	
   7.5000	  29.0000	  55.0000	   0.1630	   0.6304	   1.1957	   9.8348	  13.4535	
  10.0000	  29.0000	  55.0000	   0.2174	   0.6304	   1.1957	   8.6900	  13.2700	
  12.5000	  29.0000	  55.0000	   0.2717	   0.6304	   1.1957	   8.8572	  12.6933	
  15.0000	  29.0000	  55.0000	   0.3261	   0.6304	   1.1957	   8.5292	  12.0897	
  17.5000	  29.0000	  55.0000	   0.3804	   0.6304	   1.1957	   7.6530	  11.4337	
  20.0000	  29.0000	  55.0000	   0.4348	   0.6304	   1.1957	   5.9700	  10.6800	
 -20.0000	  29.0000	  57.5000	  -0.4348	   0.6304	   1.2500	   6.9175	   9.7725	
 -17.5000	  29.0000	  57.5000	  -0.3804	   0.6304	   1.2500	   7.3200	  10.3531	
 -15.0000	  29.0000	  57.5000	  -0.3261	   0.6304	   1.2500	   7.7225	  10.9338	
 -12.5000	  29.0000	  57.5000	  -0.2717	   0.6304	   1.2500	   8.1250	  11.5144	
 -10.0000	  29.0000	  57.5000	  -0.2174	   0.6304	   1.2500	   8.4605	  11.9882	
  -7.5000	  29.0000	  57.5000	  -0.1630	   0.6304	   1.2500	   8.5394	  12.0525	
  -5.0000	  29.0000	  57.5000	  -0.1087	   0.6304	   1.2500	   8.5513	  12.0100	