Variables = "x [mm]"	"y [mm]"	"z [mm]"	"x/B"	"y/B"	"z/B"	"C*"	"C*std"	
Zone T = "East_y=148mm_Tec" I=17 J=25 F=POINT
 -20.0000	 148.0000	   5.0000	  -0.4348	   3.2174	   0.1087	  17.4702	  31.1213	
 -17.5000	 148.0000	   5.0000	  -0.3804	   3.2174	   0.1087	  34.1312	  49.1488	
 -15.0000	 148.0000	   5.0000	  -0.3261	   3.2174	   0.1087	  50.8375	  67.2425	
 -12.5000	 148.0000	   5.0000	  -0.2717	   3.2174	   0.1087	  67.5438	  85.3363	
 -10.0000	 148.0000	   5.0000	  -0.2174	   3.2174	   0.1087	  84.2500	 103.4300	
  -7.5000	 148.0000	   5.0000	  -0.1630	   3.2174	   0.1087	 110.7850	 131.3550	
  -5.0000	 148.0000	   5.0000	  -0.1087	   3.2174	   0.1087	 137.3200	 159.2800	
  -2.5000	 148.0000	   5.0000	  -0.0543	   3.2174	   0.1087	 163.8550	 187.2050	
   0.0000	 148.0000	   5.0000	   0.0000	   3.2174	   0.1087	 190.3900	 215.1300	
   2.5000	 148.0000	   5.0000	   0.0543	   3.2174	   0.1087	 187.4875	 193.9000	
   5.0000	 148.0000	   5.0000	   0.1087	   3.2174	   0.1087	 184.5850	 172.6700	
   7.5000	 148.0000	   5.0000	   0.1630	   3.2174	   0.1087	 181.6825	 151.4400	
  10.0000	 148.0000	   5.0000	   0.2174	   3.2174	   0.1087	 178.7800	 130.2100	
  12.5000	 148.0000	   5.0000	   0.2717	   3.2174	   0.1087	 165.2850	 114.5600	
  15.0000	 148.0000	   5.0000	   0.3261	   3.2174	   0.1087	 151.7900	  98.9100	
  17.5000	 148.0000	   5.0000	   0.3804	   3.2174	   0.1087	 138.2950	  83.2600	
  20.0000	 148.0000	   5.0000	   0.4348	   3.2174	   0.1087	 124.8000	  67.6100	
 -20.0000	 148.0000	   7.5000	  -0.4348	   3.2174	   0.1630	  17.2670	  29.7656	
 -17.5000	 148.0000	   7.5000	  -0.3804	   3.2174	   0.1630	  31.9642	  44.9386	
 -15.0000	 148.0000	   7.5000	  -0.3261	   3.2174	   0.1630	  46.6853	  60.1191	
 -12.5000	 148.0000	   7.5000	  -0.2717	   3.2174	   0.1630	  61.4064	  75.2995	
 -10.0000	 148.0000	   7.5000	  -0.2174	   3.2174	   0.1630	  77.4363	  91.8028	
  -7.5000	 148.0000	   7.5000	  -0.1630	   3.2174	   0.1630	  97.8669	 112.7538	
  -5.0000	 148.0000	   7.5000	  -0.1087	   3.2174	   0.1630	 119.6063	 135.0275	
  -2.5000	 148.0000	   7.5000	  -0.0543	   3.2174	   0.1630	 141.3456	 157.3013	
   0.0000	 148.0000	   7.5000	   0.0000	   3.2174	   0.1630	 159.1386	 173.0215	
   2.5000	 148.0000	   7.5000	   0.0543	   3.2174	   0.1630	 161.8037	 163.6200	
   5.0000	 148.0000	   7.5000	   0.1087	   3.2174	   0.1630	 160.5225	 147.6650	
   7.5000	 148.0000	   7.5000	   0.1630	   3.2174	   0.1630	 159.2413	 131.7100	
  10.0000	 148.0000	   7.5000	   0.2174	   3.2174	   0.1630	 156.4796	 116.3875	
  12.5000	 148.0000	   7.5000	   0.2717	   3.2174	   0.1630	 148.0431	 103.4894	
  15.0000	 148.0000	   7.5000	   0.3261	   3.2174	   0.1630	 138.1262	  91.2238	
  17.5000	 148.0000	   7.5000	   0.3804	   3.2174	   0.1630	 128.2094	  78.9581	
  20.0000	 148.0000	   7.5000	   0.4348	   3.2174	   0.1630	 118.2925	  66.6925	
 -20.0000	 148.0000	  10.0000	  -0.4348	   3.2174	   0.2174	  17.0638	  28.4100	
 -17.5000	 148.0000	  10.0000	  -0.3804	   3.2174	   0.2174	  29.7972	  40.7284	
 -15.0000	 148.0000	  10.0000	  -0.3261	   3.2174	   0.2174	  42.5331	  52.9956	
 -12.5000	 148.0000	  10.0000	  -0.2717	   3.2174	   0.2174	  55.2691	  65.2628	
 -10.0000	 148.0000	  10.0000	  -0.2174	   3.2174	   0.2174	  69.0159	  78.5763	
  -7.5000	 148.0000	  10.0000	  -0.1630	   3.2174	   0.2174	  84.9487	  94.1525	
  -5.0000	 148.0000	  10.0000	  -0.1087	   3.2174	   0.2174	 101.8925	 110.7750	
  -2.5000	 148.0000	  10.0000	  -0.0543	   3.2174	   0.2174	 118.8362	 127.3975	
   0.0000	 148.0000	  10.0000	   0.0000	   3.2174	   0.2174	 132.0903	 137.9528	
   2.5000	 148.0000	  10.0000	   0.0543	   3.2174	   0.2174	 136.1200	 133.3400	
   5.0000	 148.0000	  10.0000	   0.1087	   3.2174	   0.2174	 136.4600	 122.6600	
   7.5000	 148.0000	  10.0000	   0.1630	   3.2174	   0.2174	 136.8000	 111.9800	
  10.0000	 148.0000	  10.0000	   0.2174	   3.2174	   0.2174	 135.6558	 101.6997	
  12.5000	 148.0000	  10.0000	   0.2717	   3.2174	   0.2174	 130.8013	  92.4187	
  15.0000	 148.0000	  10.0000	   0.3261	   3.2174	   0.2174	 124.4625	  83.5375	
  17.5000	 148.0000	  10.0000	   0.3804	   3.2174	   0.2174	 118.1238	  74.6563	
  20.0000	 148.0000	  10.0000	   0.4348	   3.2174	   0.2174	 111.7850	  65.7750	
 -20.0000	 148.0000	  12.5000	  -0.4348	   3.2174	   0.2717	  16.8606	  27.0543	
 -17.5000	 148.0000	  12.5000	  -0.3804	   3.2174	   0.2717	  27.6302	  36.5183	
 -15.0000	 148.0000	  12.5000	  -0.3261	   3.2174	   0.2717	  38.3809	  45.8722	
 -12.5000	 148.0000	  12.5000	  -0.2717	   3.2174	   0.2717	  49.1317	  55.2261	
 -10.0000	 148.0000	  12.5000	  -0.2174	   3.2174	   0.2717	  60.1431	  64.8816	
  -7.5000	 148.0000	  12.5000	  -0.1630	   3.2174	   0.2717	  72.0306	  75.5513	
  -5.0000	 148.0000	  12.5000	  -0.1087	   3.2174	   0.2717	  84.1787	  86.5225	
  -2.5000	 148.0000	  12.5000	  -0.0543	   3.2174	   0.2717	  96.3269	  97.4938	
   0.0000	 148.0000	  12.5000	   0.0000	   3.2174	   0.2717	 106.7287	 105.6576	
   2.5000	 148.0000	  12.5000	   0.0543	   3.2174	   0.2717	 110.4362	 103.0600	
   5.0000	 148.0000	  12.5000	   0.1087	   3.2174	   0.2717	 112.3975	  97.6550	
   7.5000	 148.0000	  12.5000	   0.1630	   3.2174	   0.2717	 114.3588	  92.2500	
  10.0000	 148.0000	  12.5000	   0.2174	   3.2174	   0.2717	 115.5105	  86.8292	
  12.5000	 148.0000	  12.5000	   0.2717	   3.2174	   0.2717	 113.5594	  81.3481	
  15.0000	 148.0000	  12.5000	   0.3261	   3.2174	   0.2717	 110.7988	  75.8513	
  17.5000	 148.0000	  12.5000	   0.3804	   3.2174	   0.2717	 108.0381	  70.3544	
  20.0000	 148.0000	  12.5000	   0.4348	   3.2174	   0.2717	 105.2775	  64.8575	
 -20.0000	 148.0000	  15.0000	  -0.4348	   3.2174	   0.3261	  16.6575	  25.6986	
 -17.5000	 148.0000	  15.0000	  -0.3804	   3.2174	   0.3261	  25.4779	  32.3585	
 -15.0000	 148.0000	  15.0000	  -0.3261	   3.2174	   0.3261	  34.4776	  39.2750	
 -12.5000	 148.0000	  15.0000	  -0.2717	   3.2174	   0.3261	  43.4016	  45.9837	
 -10.0000	 148.0000	  15.0000	  -0.2174	   3.2174	   0.3261	  51.7600	  51.6300	
  -7.5000	 148.0000	  15.0000	  -0.1630	   3.2174	   0.3261	  60.5913	  59.2442	
  -5.0000	 148.0000	  15.0000	  -0.1087	   3.2174	   0.3261	  69.2883	  66.3119	
  -2.5000	 148.0000	  15.0000	  -0.0543	   3.2174	   0.3261	  76.6947	  71.5319	
   0.0000	 148.0000	  15.0000	   0.0000	   3.2174	   0.3261	  81.1700	  72.9100	
   2.5000	 148.0000	  15.0000	   0.0543	   3.2174	   0.3261	  88.0732	  76.6960	
   5.0000	 148.0000	  15.0000	   0.1087	   3.2174	   0.3261	  92.3081	  76.6247	
   7.5000	 148.0000	  15.0000	   0.1630	   3.2174	   0.3261	  94.7267	  74.7365	
  10.0000	 148.0000	  15.0000	   0.2174	   3.2174	   0.3261	  95.5000	  72.3900	
  12.5000	 148.0000	  15.0000	   0.2717	   3.2174	   0.3261	  98.2411	  71.1213	
  15.0000	 148.0000	  15.0000	   0.3261	   3.2174	   0.3261	  98.8122	  68.5808	
  17.5000	 148.0000	  15.0000	   0.3804	   3.2174	   0.3261	  98.6166	  65.8503	
  20.0000	 148.0000	  15.0000	   0.4348	   3.2174	   0.3261	  98.7700	  63.9400	
 -20.0000	 148.0000	  17.5000	  -0.4348	   3.2174	   0.3804	  15.4490	  23.3370	
 -17.5000	 148.0000	  17.5000	  -0.3804	   3.2174	   0.3804	  23.6975	  29.4661	
 -15.0000	 148.0000	  17.5000	  -0.3261	   3.2174	   0.3804	  31.8600	  35.3966	
 -12.5000	 148.0000	  17.5000	  -0.2717	   3.2174	   0.3804	  40.0225	  41.3270	
 -10.0000	 148.0000	  17.5000	  -0.2174	   3.2174	   0.3804	  47.9003	  46.9860	
  -7.5000	 148.0000	  17.5000	  -0.1630	   3.2174	   0.3804	  54.8206	  51.7319	
  -5.0000	 148.0000	  17.5000	  -0.1087	   3.2174	   0.3804	  61.4562	  56.2062	
  -2.5000	 148.0000	  17.5000	  -0.0543	   3.2174	   0.3804	  68.0919	  60.6806	
   0.0000	 148.0000	  17.5000	   0.0000	   3.2174	   0.3804	  74.2263	  64.4202	
   2.5000	 148.0000	  17.5000	   0.0543	   3.2174	   0.3804	  78.4394	  65.3431	
   5.0000	 148.0000	  17.5000	   0.1087	   3.2174	   0.3804	  82.1512	  65.5312	
   7.5000	 148.0000	  17.5000	   0.1630	   3.2174	   0.3804	  85.8631	  65.7194	
  10.0000	 148.0000	  17.5000	   0.2174	   3.2174	   0.3804	  89.0624	  65.5703	
  12.5000	 148.0000	  17.5000	   0.2717	   3.2174	   0.3804	  90.2969	  64.1287	
  15.0000	 148.0000	  17.5000	   0.3261	   3.2174	   0.3804	  91.0187	  62.3500	
  17.5000	 148.0000	  17.5000	   0.3804	   3.2174	   0.3804	  91.7406	  60.5713	
  20.0000	 148.0000	  17.5000	   0.4348	   3.2174	   0.3804	  92.4625	  58.7925	
 -20.0000	 148.0000	  20.0000	  -0.4348	   3.2174	   0.4348	  14.2405	  20.9754	
 -17.5000	 148.0000	  20.0000	  -0.3804	   3.2174	   0.4348	  21.9319	  26.6241	
 -15.0000	 148.0000	  20.0000	  -0.3261	   3.2174	   0.4348	  29.4912	  32.0444	
 -12.5000	 148.0000	  20.0000	  -0.2717	   3.2174	   0.4348	  37.0506	  37.4647	
 -10.0000	 148.0000	  20.0000	  -0.2174	   3.2174	   0.4348	  44.2159	  42.4546	
  -7.5000	 148.0000	  20.0000	  -0.1630	   3.2174	   0.4348	  50.5288	  46.5138	
  -5.0000	 148.0000	  20.0000	  -0.1087	   3.2174	   0.4348	  56.4475	  50.1425	
  -2.5000	 148.0000	  20.0000	  -0.0543	   3.2174	   0.4348	  62.3662	  53.7712	
   0.0000	 148.0000	  20.0000	   0.0000	   3.2174	   0.4348	  67.8233	  56.7061	
   2.5000	 148.0000	  20.0000	   0.0543	   3.2174	   0.4348	  72.1262	  57.9062	
   5.0000	 148.0000	  20.0000	   0.1087	   3.2174	   0.4348	  75.9675	  58.4125	
   7.5000	 148.0000	  20.0000	   0.1630	   3.2174	   0.4348	  79.8087	  58.9187	
  10.0000	 148.0000	  20.0000	   0.2174	   3.2174	   0.4348	  82.9356	  58.9914	
  12.5000	 148.0000	  20.0000	   0.2717	   3.2174	   0.4348	  84.2762	  57.9800	
  15.0000	 148.0000	  20.0000	   0.3261	   3.2174	   0.4348	  84.9025	  56.5350	
  17.5000	 148.0000	  20.0000	   0.3804	   3.2174	   0.4348	  85.5288	  55.0900	
  20.0000	 148.0000	  20.0000	   0.4348	   3.2174	   0.4348	  86.1550	  53.6450	
 -20.0000	 148.0000	  22.5000	  -0.4348	   3.2174	   0.4891	  13.0321	  18.6138	
 -17.5000	 148.0000	  22.5000	  -0.3804	   3.2174	   0.4891	  20.1662	  23.7820	
 -15.0000	 148.0000	  22.5000	  -0.3261	   3.2174	   0.4891	  27.1225	  28.6922	
 -12.5000	 148.0000	  22.5000	  -0.2717	   3.2174	   0.4891	  34.0788	  33.6023	
 -10.0000	 148.0000	  22.5000	  -0.2174	   3.2174	   0.4891	  40.7078	  38.1159	
  -7.5000	 148.0000	  22.5000	  -0.1630	   3.2174	   0.4891	  46.2369	  41.2956	
  -5.0000	 148.0000	  22.5000	  -0.1087	   3.2174	   0.4891	  51.4387	  44.0787	
  -2.5000	 148.0000	  22.5000	  -0.0543	   3.2174	   0.4891	  56.6406	  46.8619	
   0.0000	 148.0000	  22.5000	   0.0000	   3.2174	   0.4891	  61.6314	  49.3092	
   2.5000	 148.0000	  22.5000	   0.0543	   3.2174	   0.4891	  65.8131	  50.4694	
   5.0000	 148.0000	  22.5000	   0.1087	   3.2174	   0.4891	  69.7837	  51.2938	
   7.5000	 148.0000	  22.5000	   0.1630	   3.2174	   0.4891	  73.7544	  52.1181	
  10.0000	 148.0000	  22.5000	   0.2174	   3.2174	   0.4891	  77.1353	  52.6107	
  12.5000	 148.0000	  22.5000	   0.2717	   3.2174	   0.4891	  78.2556	  51.8312	
  15.0000	 148.0000	  22.5000	   0.3261	   3.2174	   0.4891	  78.7862	  50.7200	
  17.5000	 148.0000	  22.5000	   0.3804	   3.2174	   0.4891	  79.3169	  49.6088	
  20.0000	 148.0000	  22.5000	   0.4348	   3.2174	   0.4891	  79.8475	  48.4975	
 -20.0000	 148.0000	  25.0000	  -0.4348	   3.2174	   0.5435	  11.8236	  16.2521	
 -17.5000	 148.0000	  25.0000	  -0.3804	   3.2174	   0.5435	  18.4559	  21.0112	
 -15.0000	 148.0000	  25.0000	  -0.3261	   3.2174	   0.5435	  24.9460	  25.5955	
 -12.5000	 148.0000	  25.0000	  -0.2717	   3.2174	   0.5435	  31.2684	  29.9623	
 -10.0000	 148.0000	  25.0000	  -0.2174	   3.2174	   0.5435	  37.4600	  34.1400	
  -7.5000	 148.0000	  25.0000	  -0.1630	   3.2174	   0.5435	  42.2448	  36.4914	
  -5.0000	 148.0000	  25.0000	  -0.1087	   3.2174	   0.5435	  46.9556	  38.7269	
  -2.5000	 148.0000	  25.0000	  -0.0543	   3.2174	   0.5435	  51.4261	  40.6370	
   0.0000	 148.0000	  25.0000	   0.0000	   3.2174	   0.5435	  55.4000	  41.8900	
   2.5000	 148.0000	  25.0000	   0.0543	   3.2174	   0.5435	  60.0825	  43.8047	
   5.0000	 148.0000	  25.0000	   0.1087	   3.2174	   0.5435	  64.3108	  45.1142	
   7.5000	 148.0000	  25.0000	   0.1630	   3.2174	   0.5435	  68.2142	  45.9943	
  10.0000	 148.0000	  25.0000	   0.2174	   3.2174	   0.5435	  71.8000	  46.4600	
  12.5000	 148.0000	  25.0000	   0.2717	   3.2174	   0.5435	  72.7189	  46.2528	
  15.0000	 148.0000	  25.0000	   0.3261	   3.2174	   0.5435	  73.3022	  45.5681	
  17.5000	 148.0000	  25.0000	   0.3804	   3.2174	   0.5435	  73.5966	  44.5802	
  20.0000	 148.0000	  25.0000	   0.4348	   3.2174	   0.5435	  73.5400	  43.3500	
 -20.0000	 148.0000	  27.5000	  -0.4348	   3.2174	   0.5978	  12.3413	  16.0252	
 -17.5000	 148.0000	  27.5000	  -0.3804	   3.2174	   0.5978	  18.1355	  20.0323	
 -15.0000	 148.0000	  27.5000	  -0.3261	   3.2174	   0.5978	  23.7628	  23.8191	
 -12.5000	 148.0000	  27.5000	  -0.2717	   3.2174	   0.5978	  29.3902	  27.6058	
 -10.0000	 148.0000	  27.5000	  -0.2174	   3.2174	   0.5978	  34.7857	  31.0372	
  -7.5000	 148.0000	  27.5000	  -0.1630	   3.2174	   0.5978	  39.4019	  33.2737	
  -5.0000	 148.0000	  27.5000	  -0.1087	   3.2174	   0.5978	  43.7863	  35.1550	
  -2.5000	 148.0000	  27.5000	  -0.0543	   3.2174	   0.5978	  48.1706	  37.0362	
   0.0000	 148.0000	  27.5000	   0.0000	   3.2174	   0.5978	  52.4943	  38.7977	
   2.5000	 148.0000	  27.5000	   0.0543	   3.2174	   0.5978	  56.5850	  40.1000	
   5.0000	 148.0000	  27.5000	   0.1087	   3.2174	   0.5978	  60.6150	  41.2825	
   7.5000	 148.0000	  27.5000	   0.1630	   3.2174	   0.5978	  64.6450	  42.4650	
  10.0000	 148.0000	  27.5000	   0.2174	   3.2174	   0.5978	  68.0462	  43.3099	
  12.5000	 148.0000	  27.5000	   0.2717	   3.2174	   0.5978	  69.0369	  42.8606	
  15.0000	 148.0000	  27.5000	   0.3261	   3.2174	   0.5978	  69.3988	  42.0738	
  17.5000	 148.0000	  27.5000	   0.3804	   3.2174	   0.5978	  69.7606	  41.2869	
  20.0000	 148.0000	  27.5000	   0.4348	   3.2174	   0.5978	  70.1225	  40.5000	
 -20.0000	 148.0000	  30.0000	  -0.4348	   3.2174	   0.6522	  12.8590	  15.7982	
 -17.5000	 148.0000	  30.0000	  -0.3804	   3.2174	   0.6522	  17.8703	  19.1247	
 -15.0000	 148.0000	  30.0000	  -0.3261	   3.2174	   0.6522	  22.7719	  22.2981	
 -12.5000	 148.0000	  30.0000	  -0.2717	   3.2174	   0.6522	  27.6734	  25.4716	
 -10.0000	 148.0000	  30.0000	  -0.2174	   3.2174	   0.6522	  32.4266	  28.3211	
  -7.5000	 148.0000	  30.0000	  -0.1630	   3.2174	   0.6522	  36.8587	  30.4700	
  -5.0000	 148.0000	  30.0000	  -0.1087	   3.2174	   0.6522	  41.1425	  32.2950	
  -2.5000	 148.0000	  30.0000	  -0.0543	   3.2174	   0.6522	  45.4262	  34.1200	
   0.0000	 148.0000	  30.0000	   0.0000	   3.2174	   0.6522	  49.6381	  35.8111	
   2.5000	 148.0000	  30.0000	   0.0543	   3.2174	   0.6522	  53.6700	  37.1675	
   5.0000	 148.0000	  30.0000	   0.1087	   3.2174	   0.6522	  57.6300	  38.3900	
   7.5000	 148.0000	  30.0000	   0.1630	   3.2174	   0.6522	  61.5900	  39.6125	
  10.0000	 148.0000	  30.0000	   0.2174	   3.2174	   0.6522	  64.7342	  40.3864	
  12.5000	 148.0000	  30.0000	   0.2717	   3.2174	   0.6522	  65.8387	  40.0388	
  15.0000	 148.0000	  30.0000	   0.3261	   3.2174	   0.6522	  66.1275	  39.2425	
  17.5000	 148.0000	  30.0000	   0.3804	   3.2174	   0.6522	  66.4163	  38.4462	
  20.0000	 148.0000	  30.0000	   0.4348	   3.2174	   0.6522	  66.7050	  37.6500	
 -20.0000	 148.0000	  32.5000	  -0.4348	   3.2174	   0.7065	  13.3767	  15.5713	
 -17.5000	 148.0000	  32.5000	  -0.3804	   3.2174	   0.7065	  17.6052	  18.2170	
 -15.0000	 148.0000	  32.5000	  -0.3261	   3.2174	   0.7065	  21.7809	  20.7772	
 -12.5000	 148.0000	  32.5000	  -0.2717	   3.2174	   0.7065	  25.9567	  23.3373	
 -10.0000	 148.0000	  32.5000	  -0.2174	   3.2174	   0.7065	  30.1339	  25.7499	
  -7.5000	 148.0000	  32.5000	  -0.1630	   3.2174	   0.7065	  34.3156	  27.6663	
  -5.0000	 148.0000	  32.5000	  -0.1087	   3.2174	   0.7065	  38.4988	  29.4350	
  -2.5000	 148.0000	  32.5000	  -0.0543	   3.2174	   0.7065	  42.6819	  31.2037	
   0.0000	 148.0000	  32.5000	   0.0000	   3.2174	   0.7065	  46.8148	  32.8857	
   2.5000	 148.0000	  32.5000	   0.0543	   3.2174	   0.7065	  50.7550	  34.2350	
   5.0000	 148.0000	  32.5000	   0.1087	   3.2174	   0.7065	  54.6450	  35.4975	
   7.5000	 148.0000	  32.5000	   0.1630	   3.2174	   0.7065	  58.5350	  36.7600	
  10.0000	 148.0000	  32.5000	   0.2174	   3.2174	   0.7065	  61.7951	  37.6680	
  12.5000	 148.0000	  32.5000	   0.2717	   3.2174	   0.7065	  62.6406	  37.2169	
  15.0000	 148.0000	  32.5000	   0.3261	   3.2174	   0.7065	  62.8562	  36.4112	
  17.5000	 148.0000	  32.5000	   0.3804	   3.2174	   0.7065	  63.0719	  35.6056	
  20.0000	 148.0000	  32.5000	   0.4348	   3.2174	   0.7065	  63.2875	  34.8000	
 -20.0000	 148.0000	  35.0000	  -0.4348	   3.2174	   0.7609	  13.8944	  15.3443	
 -17.5000	 148.0000	  35.0000	  -0.3804	   3.2174	   0.7609	  17.3403	  17.3159	
 -15.0000	 148.0000	  35.0000	  -0.3261	   3.2174	   0.7609	  20.8483	  19.3611	
 -12.5000	 148.0000	  35.0000	  -0.2717	   3.2174	   0.7609	  24.3463	  21.3737	
 -10.0000	 148.0000	  35.0000	  -0.2174	   3.2174	   0.7609	  27.6900	  23.1500	
  -7.5000	 148.0000	  35.0000	  -0.1630	   3.2174	   0.7609	  31.8878	  25.1518	
  -5.0000	 148.0000	  35.0000	  -0.1087	   3.2174	   0.7609	  35.8794	  26.9028	
  -2.5000	 148.0000	  35.0000	  -0.0543	   3.2174	   0.7609	  39.8599	  28.5039	
   0.0000	 148.0000	  35.0000	   0.0000	   3.2174	   0.7609	  44.0200	  30.0000	
   2.5000	 148.0000	  35.0000	   0.0543	   3.2174	   0.7609	  47.6829	  31.4876	
   5.0000	 148.0000	  35.0000	   0.1087	   3.2174	   0.7609	  51.4783	  32.8517	
   7.5000	 148.0000	  35.0000	   0.1630	   3.2174	   0.7609	  55.3568	  34.1029	
  10.0000	 148.0000	  35.0000	   0.2174	   3.2174	   0.7609	  59.3000	  35.2100	
  12.5000	 148.0000	  35.0000	   0.2717	   3.2174	   0.7609	  59.3828	  34.6074	
  15.0000	 148.0000	  35.0000	   0.3261	   3.2174	   0.7609	  59.5681	  33.8706	
  17.5000	 148.0000	  35.0000	   0.3804	   3.2174	   0.7609	  59.7610	  33.0009	
  20.0000	 148.0000	  35.0000	   0.4348	   3.2174	   0.7609	  59.8700	  31.9500	
 -20.0000	 148.0000	  37.5000	  -0.4348	   3.2174	   0.8152	  13.9880	  14.6409	
 -17.5000	 148.0000	  37.5000	  -0.3804	   3.2174	   0.8152	  17.0841	  16.5791	
 -15.0000	 148.0000	  37.5000	  -0.3261	   3.2174	   0.8152	  20.2169	  18.4869	
 -12.5000	 148.0000	  37.5000	  -0.2717	   3.2174	   0.8152	  23.3497	  20.3947	
 -10.0000	 148.0000	  37.5000	  -0.2174	   3.2174	   0.8152	  26.5359	  22.2160	
  -7.5000	 148.0000	  37.5000	  -0.1630	   3.2174	   0.8152	  29.9019	  23.7462	
  -5.0000	 148.0000	  37.5000	  -0.1087	   3.2174	   0.8152	  33.3213	  25.1900	
  -2.5000	 148.0000	  37.5000	  -0.0543	   3.2174	   0.8152	  36.7406	  26.6337	
   0.0000	 148.0000	  37.5000	   0.0000	   3.2174	   0.8152	  40.2336	  28.0653	
   2.5000	 148.0000	  37.5000	   0.0543	   3.2174	   0.8152	  44.0087	  29.4500	
   5.0000	 148.0000	  37.5000	   0.1087	   3.2174	   0.8152	  47.8575	  30.8225	
   7.5000	 148.0000	  37.5000	   0.1630	   3.2174	   0.8152	  51.7062	  32.1950	
  10.0000	 148.0000	  37.5000	   0.2174	   3.2174	   0.8152	  54.9537	  33.2027	
  12.5000	 148.0000	  37.5000	   0.2717	   3.2174	   0.8152	  55.8963	  32.8119	
  15.0000	 148.0000	  37.5000	   0.3261	   3.2174	   0.8152	  56.2375	  32.0562	
  17.5000	 148.0000	  37.5000	   0.3804	   3.2174	   0.8152	  56.5787	  31.3006	
  20.0000	 148.0000	  37.5000	   0.4348	   3.2174	   0.8152	  56.9200	  30.5450	
 -20.0000	 148.0000	  40.0000	  -0.4348	   3.2174	   0.8696	  14.0817	  13.9374	
 -17.5000	 148.0000	  40.0000	  -0.3804	   3.2174	   0.8696	  16.8281	  15.8488	
 -15.0000	 148.0000	  40.0000	  -0.3261	   3.2174	   0.8696	  19.6437	  17.7175	
 -12.5000	 148.0000	  40.0000	  -0.2717	   3.2174	   0.8696	  22.4594	  19.5862	
 -10.0000	 148.0000	  40.0000	  -0.2174	   3.2174	   0.8696	  25.2607	  21.2883	
  -7.5000	 148.0000	  40.0000	  -0.1630	   3.2174	   0.8696	  28.0312	  22.6300	
  -5.0000	 148.0000	  40.0000	  -0.1087	   3.2174	   0.8696	  30.7875	  23.8050	
  -2.5000	 148.0000	  40.0000	  -0.0543	   3.2174	   0.8696	  33.5438	  24.9800	
   0.0000	 148.0000	  40.0000	   0.0000	   3.2174	   0.8696	  36.5492	  26.2144	
   2.5000	 148.0000	  40.0000	   0.0543	   3.2174	   0.8696	  40.1775	  27.5975	
   5.0000	 148.0000	  40.0000	   0.1087	   3.2174	   0.8696	  44.0550	  29.0400	
   7.5000	 148.0000	  40.0000	   0.1630	   3.2174	   0.8696	  47.9325	  30.4825	
  10.0000	 148.0000	  40.0000	   0.2174	   3.2174	   0.8696	  51.0683	  31.4497	
  12.5000	 148.0000	  40.0000	   0.2717	   3.2174	   0.8696	  52.3500	  31.2287	
  15.0000	 148.0000	  40.0000	   0.3261	   3.2174	   0.8696	  52.8900	  30.5325	
  17.5000	 148.0000	  40.0000	   0.3804	   3.2174	   0.8696	  53.4300	  29.8363	
  20.0000	 148.0000	  40.0000	   0.4348	   3.2174	   0.8696	  53.9700	  29.1400	
 -20.0000	 148.0000	  42.5000	  -0.4348	   3.2174	   0.9239	  14.1753	  13.2340	
 -17.5000	 148.0000	  42.5000	  -0.3804	   3.2174	   0.9239	  16.5722	  15.1184	
 -15.0000	 148.0000	  42.5000	  -0.3261	   3.2174	   0.9239	  19.0706	  16.9481	
 -12.5000	 148.0000	  42.5000	  -0.2717	   3.2174	   0.9239	  21.5691	  18.7778	
 -10.0000	 148.0000	  42.5000	  -0.2174	   3.2174	   0.9239	  23.9919	  20.4353	
  -7.5000	 148.0000	  42.5000	  -0.1630	   3.2174	   0.9239	  26.1606	  21.5137	
  -5.0000	 148.0000	  42.5000	  -0.1087	   3.2174	   0.9239	  28.2537	  22.4200	
  -2.5000	 148.0000	  42.5000	  -0.0543	   3.2174	   0.9239	  30.3469	  23.3262	
   0.0000	 148.0000	  42.5000	   0.0000	   3.2174	   0.9239	  32.7508	  24.3364	
   2.5000	 148.0000	  42.5000	   0.0543	   3.2174	   0.9239	  36.3462	  25.7450	
   5.0000	 148.0000	  42.5000	   0.1087	   3.2174	   0.9239	  40.2525	  27.2575	
   7.5000	 148.0000	  42.5000	   0.1630	   3.2174	   0.9239	  44.1587	  28.7700	
  10.0000	 148.0000	  42.5000	   0.2174	   3.2174	   0.9239	  47.5220	  29.9140	
  12.5000	 148.0000	  42.5000	   0.2717	   3.2174	   0.9239	  48.8038	  29.6456	
  15.0000	 148.0000	  42.5000	   0.3261	   3.2174	   0.9239	  49.5425	  29.0087	
  17.5000	 148.0000	  42.5000	   0.3804	   3.2174	   0.9239	  50.2812	  28.3719	
  20.0000	 148.0000	  42.5000	   0.4348	   3.2174	   0.9239	  51.0200	  27.7350	
 -20.0000	 148.0000	  45.0000	  -0.4348	   3.2174	   0.9783	  14.2690	  12.5305	
 -17.5000	 148.0000	  45.0000	  -0.3804	   3.2174	   0.9783	  16.2829	  14.4041	
 -15.0000	 148.0000	  45.0000	  -0.3261	   3.2174	   0.9783	  18.3678	  16.2124	
 -12.5000	 148.0000	  45.0000	  -0.2717	   3.2174	   0.9783	  20.5562	  17.9755	
 -10.0000	 148.0000	  45.0000	  -0.2174	   3.2174	   0.9783	  22.8600	  19.7600	
  -7.5000	 148.0000	  45.0000	  -0.1630	   3.2174	   0.9783	  24.1800	  20.3913	
  -5.0000	 148.0000	  45.0000	  -0.1087	   3.2174	   0.9783	  25.6514	  21.0511	
  -2.5000	 148.0000	  45.0000	  -0.0543	   3.2174	   0.9783	  27.1542	  21.7036	
   0.0000	 148.0000	  45.0000	   0.0000	   3.2174	   0.9783	  28.5800	  22.3100	
   2.5000	 148.0000	  45.0000	   0.0543	   3.2174	   0.9783	  32.4080	  23.8782	
   5.0000	 148.0000	  45.0000	   0.1087	   3.2174	   0.9783	  36.0931	  25.3736	
   7.5000	 148.0000	  45.0000	   0.1630	   3.2174	   0.9783	  39.9413	  26.9153	
  10.0000	 148.0000	  45.0000	   0.2174	   3.2174	   0.9783	  44.3200	  28.6400	
  12.5000	 148.0000	  45.0000	   0.2717	   3.2174	   0.9783	  44.5537	  27.8489	
  15.0000	 148.0000	  45.0000	   0.3261	   3.2174	   0.9783	  45.1636	  27.1983	
  17.5000	 148.0000	  45.0000	   0.3804	   3.2174	   0.9783	  46.2450	  26.6789	
  20.0000	 148.0000	  45.0000	   0.4348	   3.2174	   0.9783	  48.0700	  26.3300	
 -20.0000	 148.0000	  47.5000	  -0.4348	   3.2174	   1.0326	  13.4355	  12.5197	
 -17.5000	 148.0000	  47.5000	  -0.3804	   3.2174	   1.0326	  15.1533	  14.0917	
 -15.0000	 148.0000	  47.5000	  -0.3261	   3.2174	   1.0326	  16.9947	  15.6503	
 -12.5000	 148.0000	  47.5000	  -0.2717	   3.2174	   1.0326	  18.8361	  17.2089	
 -10.0000	 148.0000	  47.5000	  -0.2174	   3.2174	   1.0326	  20.5392	  18.5659	
  -7.5000	 148.0000	  47.5000	  -0.1630	   3.2174	   1.0326	  21.7775	  19.2450	
  -5.0000	 148.0000	  47.5000	  -0.1087	   3.2174	   1.0326	  22.8775	  19.7225	
  -2.5000	 148.0000	  47.5000	  -0.0543	   3.2174	   1.0326	  23.9775	  20.2000	
   0.0000	 148.0000	  47.5000	   0.0000	   3.2174	   1.0326	  25.4001	  20.8150	
   2.5000	 148.0000	  47.5000	   0.0543	   3.2174	   1.0326	  28.0594	  21.9569	
   5.0000	 148.0000	  47.5000	   0.1087	   3.2174	   1.0326	  31.0413	  23.2362	
   7.5000	 148.0000	  47.5000	   0.1630	   3.2174	   1.0326	  34.0231	  24.5156	
  10.0000	 148.0000	  47.5000	   0.2174	   3.2174	   1.0326	  36.5968	  25.4794	
  12.5000	 148.0000	  47.5000	   0.2717	   3.2174	   1.0326	  37.6056	  25.2331	
  15.0000	 148.0000	  47.5000	   0.3261	   3.2174	   1.0326	  38.2063	  24.6713	
  17.5000	 148.0000	  47.5000	   0.3804	   3.2174	   1.0326	  38.8069	  24.1094	
  20.0000	 148.0000	  47.5000	   0.4348	   3.2174	   1.0326	  39.4075	  23.5475	
 -20.0000	 148.0000	  50.0000	  -0.4348	   3.2174	   1.0870	  12.6020	  12.5088	
 -17.5000	 148.0000	  50.0000	  -0.3804	   3.2174	   1.0870	  13.9903	  13.7953	
 -15.0000	 148.0000	  50.0000	  -0.3261	   3.2174	   1.0870	  15.4919	  15.1219	
 -12.5000	 148.0000	  50.0000	  -0.2717	   3.2174	   1.0870	  16.9934	  16.4484	
 -10.0000	 148.0000	  50.0000	  -0.2174	   3.2174	   1.0870	  18.3192	  17.5326	
  -7.5000	 148.0000	  50.0000	  -0.1630	   3.2174	   1.0870	  19.2650	  18.0925	
  -5.0000	 148.0000	  50.0000	  -0.1087	   3.2174	   1.0870	  20.0350	  18.4100	
  -2.5000	 148.0000	  50.0000	  -0.0543	   3.2174	   1.0870	  20.8050	  18.7275	
   0.0000	 148.0000	  50.0000	   0.0000	   3.2174	   1.0870	  21.8547	  19.1914	
   2.5000	 148.0000	  50.0000	   0.0543	   3.2174	   1.0870	  23.6037	  20.0212	
   5.0000	 148.0000	  50.0000	   0.1087	   3.2174	   1.0870	  25.6325	  20.9975	
   7.5000	 148.0000	  50.0000	   0.1630	   3.2174	   1.0870	  27.6613	  21.9737	
  10.0000	 148.0000	  50.0000	   0.2174	   3.2174	   1.0870	  29.2978	  22.6117	
  12.5000	 148.0000	  50.0000	   0.2717	   3.2174	   1.0870	  29.9537	  22.4037	
  15.0000	 148.0000	  50.0000	   0.3261	   3.2174	   1.0870	  30.2175	  21.8575	
  17.5000	 148.0000	  50.0000	   0.3804	   3.2174	   1.0870	  30.4813	  21.3113	
  20.0000	 148.0000	  50.0000	   0.4348	   3.2174	   1.0870	  30.7450	  20.7650	
 -20.0000	 148.0000	  52.5000	  -0.4348	   3.2174	   1.1413	  11.7685	  12.4979	
 -17.5000	 148.0000	  52.5000	  -0.3804	   3.2174	   1.1413	  12.8273	  13.4989	
 -15.0000	 148.0000	  52.5000	  -0.3261	   3.2174	   1.1413	  13.9891	  14.5934	
 -12.5000	 148.0000	  52.5000	  -0.2717	   3.2174	   1.1413	  15.1508	  15.6880	
 -10.0000	 148.0000	  52.5000	  -0.2174	   3.2174	   1.1413	  16.1779	  16.6078	
  -7.5000	 148.0000	  52.5000	  -0.1630	   3.2174	   1.1413	  16.7525	  16.9400	
  -5.0000	 148.0000	  52.5000	  -0.1087	   3.2174	   1.1413	  17.1925	  17.0975	
  -2.5000	 148.0000	  52.5000	  -0.0543	   3.2174	   1.1413	  17.6325	  17.2550	
   0.0000	 148.0000	  52.5000	   0.0000	   3.2174	   1.1413	  18.1815	  17.5009	
   2.5000	 148.0000	  52.5000	   0.0543	   3.2174	   1.1413	  19.1481	  18.0856	
   5.0000	 148.0000	  52.5000	   0.1087	   3.2174	   1.1413	  20.2237	  18.7587	
   7.5000	 148.0000	  52.5000	   0.1630	   3.2174	   1.1413	  21.2994	  19.4319	
  10.0000	 148.0000	  52.5000	   0.2174	   3.2174	   1.1413	  22.1781	  19.8986	
  12.5000	 148.0000	  52.5000	   0.2717	   3.2174	   1.1413	  22.3019	  19.5744	
  15.0000	 148.0000	  52.5000	   0.3261	   3.2174	   1.1413	  22.2287	  19.0437	
  17.5000	 148.0000	  52.5000	   0.3804	   3.2174	   1.1413	  22.1556	  18.5131	
  20.0000	 148.0000	  52.5000	   0.4348	   3.2174	   1.1413	  22.0825	  17.9825	
 -20.0000	 148.0000	  55.0000	  -0.4348	   3.2174	   1.1957	  10.9350	  12.4871	
 -17.5000	 148.0000	  55.0000	  -0.3804	   3.2174	   1.1957	  11.6419	  13.1662	
 -15.0000	 148.0000	  55.0000	  -0.3261	   3.2174	   1.1957	  12.4211	  13.9361	
 -12.5000	 148.0000	  55.0000	  -0.2717	   3.2174	   1.1957	  13.2667	  14.8168	
 -10.0000	 148.0000	  55.0000	  -0.2174	   3.2174	   1.1957	  14.1300	  15.7900	
  -7.5000	 148.0000	  55.0000	  -0.1630	   3.2174	   1.1957	  14.2454	  15.6559	
  -5.0000	 148.0000	  55.0000	  -0.1087	   3.2174	   1.1957	  14.4033	  15.6211	
  -2.5000	 148.0000	  55.0000	  -0.0543	   3.2174	   1.1957	  14.5369	  15.6612	
   0.0000	 148.0000	  55.0000	   0.0000	   3.2174	   1.1957	  14.5700	  15.7800	
   2.5000	 148.0000	  55.0000	   0.0543	   3.2174	   1.1957	  14.9549	  16.0610	
   5.0000	 148.0000	  55.0000	   0.1087	   3.2174	   1.1957	  15.3492	  16.4397	
   7.5000	 148.0000	  55.0000	   0.1630	   3.2174	   1.1957	  15.4992	  16.8552	
  10.0000	 148.0000	  55.0000	   0.2174	   3.2174	   1.1957	  15.0600	  17.2600	
  12.5000	 148.0000	  55.0000	   0.2717	   3.2174	   1.1957	  15.4283	  16.7375	
  15.0000	 148.0000	  55.0000	   0.3261	   3.2174	   1.1957	  15.3356	  16.2206	
  17.5000	 148.0000	  55.0000	   0.3804	   3.2174	   1.1957	  14.7420	  15.7079	
  20.0000	 148.0000	  55.0000	   0.4348	   3.2174	   1.1957	  13.4200	  15.2000	
 -20.0000	 148.0000	  57.5000	  -0.4348	   3.2174	   1.2500	   9.3320	  11.3344	
 -17.5000	 148.0000	  57.5000	  -0.3804	   3.2174	   1.2500	   9.8903	  11.9187	
 -15.0000	 148.0000	  57.5000	  -0.3261	   3.2174	   1.2500	  10.5169	  12.6125	
 -12.5000	 148.0000	  57.5000	  -0.2717	   3.2174	   1.2500	  11.1434	  13.3063	
 -10.0000	 148.0000	  57.5000	  -0.2174	   3.2174	   1.2500	  11.6511	  13.8459	
  -7.5000	 148.0000	  57.5000	  -0.1630	   3.2174	   1.2500	  11.7587	  13.8675	
  -5.0000	 148.0000	  57.5000	  -0.1087	   3.2174	   1.2500	  11.7475	  13.7350	