Variables = "x [mm]"	"y [mm]"	"z [mm]"	"x/B"	"y/B"	"z/B"	"C*"	"C*std"	
Zone T = "East_y=-142mm_Tec" I=17 J=25 F=POINT
 -20.0000	-142.0000	   5.0000	  -0.4348	  -3.0870	   0.1087	   9.7000	   5.2600	
 -17.5000	-142.0000	   5.0000	  -0.3804	  -3.0870	   0.1087	  10.4425	   7.8150	
 -15.0000	-142.0000	   5.0000	  -0.3261	  -3.0870	   0.1087	  11.1850	  10.3700	
 -12.5000	-142.0000	   5.0000	  -0.2717	  -3.0870	   0.1087	  11.9275	  12.9250	
 -10.0000	-142.0000	   5.0000	  -0.2174	  -3.0870	   0.1087	  12.6700	  15.4800	
  -7.5000	-142.0000	   5.0000	  -0.1630	  -3.0870	   0.1087	  17.1700	  28.9425	
  -5.0000	-142.0000	   5.0000	  -0.1087	  -3.0870	   0.1087	  21.6700	  42.4050	
  -2.5000	-142.0000	   5.0000	  -0.0543	  -3.0870	   0.1087	  26.1700	  55.8675	
   0.0000	-142.0000	   5.0000	   0.0000	  -3.0870	   0.1087	  30.6700	  69.3300	
   2.5000	-142.0000	   5.0000	   0.0543	  -3.0870	   0.1087	  42.7450	  72.0725	
   5.0000	-142.0000	   5.0000	   0.1087	  -3.0870	   0.1087	  54.8200	  74.8150	
   7.5000	-142.0000	   5.0000	   0.1630	  -3.0870	   0.1087	  66.8950	  77.5575	
  10.0000	-142.0000	   5.0000	   0.2174	  -3.0870	   0.1087	  78.9700	  80.3000	
  12.5000	-142.0000	   5.0000	   0.2717	  -3.0870	   0.1087	  77.5775	  69.2775	
  15.0000	-142.0000	   5.0000	   0.3261	  -3.0870	   0.1087	  76.1850	  58.2550	
  17.5000	-142.0000	   5.0000	   0.3804	  -3.0870	   0.1087	  74.7925	  47.2325	
  20.0000	-142.0000	   5.0000	   0.4348	  -3.0870	   0.1087	  73.4000	  36.2100	
 -20.0000	-142.0000	   7.5000	  -0.4348	  -3.0870	   0.1630	   9.9600	   5.3625	
 -17.5000	-142.0000	   7.5000	  -0.3804	  -3.0870	   0.1630	  10.6931	   7.5081	
 -15.0000	-142.0000	   7.5000	  -0.3261	  -3.0870	   0.1630	  11.4263	   9.6538	
 -12.5000	-142.0000	   7.5000	  -0.2717	  -3.0870	   0.1630	  12.1594	  11.7994	
 -10.0000	-142.0000	   7.5000	  -0.2174	  -3.0870	   0.1630	  13.3766	  15.3864	
  -7.5000	-142.0000	   7.5000	  -0.1630	  -3.0870	   0.1630	  16.4494	  24.4987	
  -5.0000	-142.0000	   7.5000	  -0.1087	  -3.0870	   0.1630	  20.0063	  35.0525	
  -2.5000	-142.0000	   7.5000	  -0.0543	  -3.0870	   0.1630	  23.5631	  45.6063	
   0.0000	-142.0000	   7.5000	   0.0000	  -3.0870	   0.1630	  28.1850	  54.8631	
   2.5000	-142.0000	   7.5000	   0.0543	  -3.0870	   0.1630	  36.8894	  59.1487	
   5.0000	-142.0000	   7.5000	   0.1087	  -3.0870	   0.1630	  46.6588	  62.1375	
   7.5000	-142.0000	   7.5000	   0.1630	  -3.0870	   0.1630	  56.4281	  65.1262	
  10.0000	-142.0000	   7.5000	   0.2174	  -3.0870	   0.1630	  64.5068	  66.1876	
  12.5000	-142.0000	   7.5000	   0.2717	  -3.0870	   0.1630	  66.1044	  59.8606	
  15.0000	-142.0000	   7.5000	   0.3261	  -3.0870	   0.1630	  66.0113	  51.6063	
  17.5000	-142.0000	   7.5000	   0.3804	  -3.0870	   0.1630	  65.9181	  43.3519	
  20.0000	-142.0000	   7.5000	   0.4348	  -3.0870	   0.1630	  65.8250	  35.0975	
 -20.0000	-142.0000	  10.0000	  -0.4348	  -3.0870	   0.2174	  10.2200	   5.4650	
 -17.5000	-142.0000	  10.0000	  -0.3804	  -3.0870	   0.2174	  10.9438	   7.2013	
 -15.0000	-142.0000	  10.0000	  -0.3261	  -3.0870	   0.2174	  11.6675	   8.9375	
 -12.5000	-142.0000	  10.0000	  -0.2717	  -3.0870	   0.2174	  12.3912	  10.6738	
 -10.0000	-142.0000	  10.0000	  -0.2174	  -3.0870	   0.2174	  13.5350	  13.7231	
  -7.5000	-142.0000	  10.0000	  -0.1630	  -3.0870	   0.2174	  15.7288	  20.0550	
  -5.0000	-142.0000	  10.0000	  -0.1087	  -3.0870	   0.2174	  18.3425	  27.7000	
  -2.5000	-142.0000	  10.0000	  -0.0543	  -3.0870	   0.2174	  20.9563	  35.3450	
   0.0000	-142.0000	  10.0000	   0.0000	  -3.0870	   0.2174	  24.6478	  42.0100	
   2.5000	-142.0000	  10.0000	   0.0543	  -3.0870	   0.2174	  31.0337	  46.2250	
   5.0000	-142.0000	  10.0000	   0.1087	  -3.0870	   0.2174	  38.4975	  49.4600	
   7.5000	-142.0000	  10.0000	   0.1630	  -3.0870	   0.2174	  45.9612	  52.6950	
  10.0000	-142.0000	  10.0000	   0.2174	  -3.0870	   0.2174	  52.0344	  53.9919	
  12.5000	-142.0000	  10.0000	   0.2717	  -3.0870	   0.2174	  54.6313	  50.4437	
  15.0000	-142.0000	  10.0000	   0.3261	  -3.0870	   0.2174	  55.8375	  44.9575	
  17.5000	-142.0000	  10.0000	   0.3804	  -3.0870	   0.2174	  57.0438	  39.4713	
  20.0000	-142.0000	  10.0000	   0.4348	  -3.0870	   0.2174	  58.2500	  33.9850	
 -20.0000	-142.0000	  12.5000	  -0.4348	  -3.0870	   0.2717	  10.4800	   5.5675	
 -17.5000	-142.0000	  12.5000	  -0.3804	  -3.0870	   0.2717	  11.1944	   6.8944	
 -15.0000	-142.0000	  12.5000	  -0.3261	  -3.0870	   0.2717	  11.9088	   8.2213	
 -12.5000	-142.0000	  12.5000	  -0.2717	  -3.0870	   0.2717	  12.6231	   9.5481	
 -10.0000	-142.0000	  12.5000	  -0.2174	  -3.0870	   0.2717	  13.5014	  11.4595	
  -7.5000	-142.0000	  12.5000	  -0.1630	  -3.0870	   0.2717	  15.0081	  15.6113	
  -5.0000	-142.0000	  12.5000	  -0.1087	  -3.0870	   0.2717	  16.6788	  20.3475	
  -2.5000	-142.0000	  12.5000	  -0.0543	  -3.0870	   0.2717	  18.3494	  25.0838	
   0.0000	-142.0000	  12.5000	   0.0000	  -3.0870	   0.2717	  20.6179	  29.6049	
   2.5000	-142.0000	  12.5000	   0.0543	  -3.0870	   0.2717	  25.1781	  33.3013	
   5.0000	-142.0000	  12.5000	   0.1087	  -3.0870	   0.2717	  30.3362	  36.7825	
   7.5000	-142.0000	  12.5000	   0.1630	  -3.0870	   0.2717	  35.4944	  40.2638	
  10.0000	-142.0000	  12.5000	   0.2174	  -3.0870	   0.2717	  40.1978	  42.6823	
  12.5000	-142.0000	  12.5000	   0.2717	  -3.0870	   0.2717	  43.1581	  41.0269	
  15.0000	-142.0000	  12.5000	   0.3261	  -3.0870	   0.2717	  45.6638	  38.3088	
  17.5000	-142.0000	  12.5000	   0.3804	  -3.0870	   0.2717	  48.1694	  35.5906	
  20.0000	-142.0000	  12.5000	   0.4348	  -3.0870	   0.2717	  50.6750	  32.8725	
 -20.0000	-142.0000	  15.0000	  -0.4348	  -3.0870	   0.3261	  10.7400	   5.6700	
 -17.5000	-142.0000	  15.0000	  -0.3804	  -3.0870	   0.3261	  11.4630	   6.6714	
 -15.0000	-142.0000	  15.0000	  -0.3261	  -3.0870	   0.3261	  12.1911	   7.6825	
 -12.5000	-142.0000	  15.0000	  -0.2717	  -3.0870	   0.3261	  12.9004	   8.6125	
 -10.0000	-142.0000	  15.0000	  -0.2174	  -3.0870	   0.3261	  13.5600	   9.3400	
  -7.5000	-142.0000	  15.0000	  -0.1630	  -3.0870	   0.3261	  14.5261	  11.8854	
  -5.0000	-142.0000	  15.0000	  -0.1087	  -3.0870	   0.3261	  15.5569	  14.5411	
  -2.5000	-142.0000	  15.0000	  -0.0543	  -3.0870	   0.3261	  16.3400	  16.4901	
   0.0000	-142.0000	  15.0000	   0.0000	  -3.0870	   0.3261	  16.4700	  16.6500	
   2.5000	-142.0000	  15.0000	   0.0543	  -3.0870	   0.3261	  20.3909	  22.3671	
   5.0000	-142.0000	  15.0000	   0.1087	  -3.0870	   0.3261	  23.9378	  26.4861	
   7.5000	-142.0000	  15.0000	   0.1630	  -3.0870	   0.3261	  26.6788	  29.5166	
  10.0000	-142.0000	  15.0000	   0.2174	  -3.0870	   0.3261	  27.8800	  31.5600	
  12.5000	-142.0000	  15.0000	   0.2717	  -3.0870	   0.3261	  33.3570	  32.7272	
  15.0000	-142.0000	  15.0000	   0.3261	  -3.0870	   0.3261	  37.3064	  32.5714	
  17.5000	-142.0000	  15.0000	   0.3804	  -3.0870	   0.3261	  40.4255	  31.9990	
  20.0000	-142.0000	  15.0000	   0.4348	  -3.0870	   0.3261	  43.1000	  31.7600	
 -20.0000	-142.0000	  17.5000	  -0.4348	  -3.0870	   0.3804	  11.0250	   5.9525	
 -17.5000	-142.0000	  17.5000	  -0.3804	  -3.0870	   0.3804	  11.8006	   6.7700	
 -15.0000	-142.0000	  17.5000	  -0.3261	  -3.0870	   0.3804	  12.5762	   7.5875	
 -12.5000	-142.0000	  17.5000	  -0.2717	  -3.0870	   0.3804	  13.3519	   8.4050	
 -10.0000	-142.0000	  17.5000	  -0.2174	  -3.0870	   0.3804	  14.1370	   9.3719	
  -7.5000	-142.0000	  17.5000	  -0.1630	  -3.0870	   0.3804	  14.9588	  10.9112	
  -5.0000	-142.0000	  17.5000	  -0.1087	  -3.0870	   0.3804	  15.7900	  12.6000	
  -2.5000	-142.0000	  17.5000	  -0.0543	  -3.0870	   0.3804	  16.6212	  14.2888	
   0.0000	-142.0000	  17.5000	   0.0000	  -3.0870	   0.3804	  17.6952	  16.2164	
   2.5000	-142.0000	  17.5000	   0.0543	  -3.0870	   0.3804	  19.6994	  19.0600	
   5.0000	-142.0000	  17.5000	   0.1087	  -3.0870	   0.3804	  21.9462	  22.1425	
   7.5000	-142.0000	  17.5000	   0.1630	  -3.0870	   0.3804	  24.1931	  25.2250	
  10.0000	-142.0000	  17.5000	   0.2174	  -3.0870	   0.3804	  26.6591	  27.8481	
  12.5000	-142.0000	  17.5000	   0.2717	  -3.0870	   0.3804	  29.9650	  28.7100	
  15.0000	-142.0000	  17.5000	   0.3261	  -3.0870	   0.3804	  33.4900	  29.1125	
  17.5000	-142.0000	  17.5000	   0.3804	  -3.0870	   0.3804	  37.0150	  29.5150	
  20.0000	-142.0000	  17.5000	   0.4348	  -3.0870	   0.3804	  40.5400	  29.9175	
 -20.0000	-142.0000	  20.0000	  -0.4348	  -3.0870	   0.4348	  11.3100	   6.2350	
 -17.5000	-142.0000	  20.0000	  -0.3804	  -3.0870	   0.4348	  12.1562	   6.9525	
 -15.0000	-142.0000	  20.0000	  -0.3261	  -3.0870	   0.4348	  13.0025	   7.6700	
 -12.5000	-142.0000	  20.0000	  -0.2717	  -3.0870	   0.4348	  13.8487	   8.3875	
 -10.0000	-142.0000	  20.0000	  -0.2174	  -3.0870	   0.4348	  14.7147	   9.2900	
  -7.5000	-142.0000	  20.0000	  -0.1630	  -3.0870	   0.4348	  15.6300	  10.6550	
  -5.0000	-142.0000	  20.0000	  -0.1087	  -3.0870	   0.4348	  16.5650	  12.2050	
  -2.5000	-142.0000	  20.0000	  -0.0543	  -3.0870	   0.4348	  17.5000	  13.7550	
   0.0000	-142.0000	  20.0000	   0.0000	  -3.0870	   0.4348	  18.5919	  15.5022	
   2.5000	-142.0000	  20.0000	   0.0543	  -3.0870	   0.4348	  20.0763	  17.7425	
   5.0000	-142.0000	  20.0000	   0.1087	  -3.0870	   0.4348	  21.7175	  20.1800	
   7.5000	-142.0000	  20.0000	   0.1630	  -3.0870	   0.4348	  23.3587	  22.6175	
  10.0000	-142.0000	  20.0000	   0.2174	  -3.0870	   0.4348	  25.3564	  24.6811	
  12.5000	-142.0000	  20.0000	   0.2717	  -3.0870	   0.4348	  28.2450	  25.8100	
  15.0000	-142.0000	  20.0000	   0.3261	  -3.0870	   0.4348	  31.4900	  26.5650	
  17.5000	-142.0000	  20.0000	   0.3804	  -3.0870	   0.4348	  34.7350	  27.3200	
  20.0000	-142.0000	  20.0000	   0.4348	  -3.0870	   0.4348	  37.9800	  28.0750	
 -20.0000	-142.0000	  22.5000	  -0.4348	  -3.0870	   0.4891	  11.5950	   6.5175	
 -17.5000	-142.0000	  22.5000	  -0.3804	  -3.0870	   0.4891	  12.5119	   7.1350	
 -15.0000	-142.0000	  22.5000	  -0.3261	  -3.0870	   0.4891	  13.4288	   7.7525	
 -12.5000	-142.0000	  22.5000	  -0.2717	  -3.0870	   0.4891	  14.3456	   8.3700	
 -10.0000	-142.0000	  22.5000	  -0.2174	  -3.0870	   0.4891	  15.2834	   9.1236	
  -7.5000	-142.0000	  22.5000	  -0.1630	  -3.0870	   0.4891	  16.3012	  10.3988	
  -5.0000	-142.0000	  22.5000	  -0.1087	  -3.0870	   0.4891	  17.3400	  11.8100	
  -2.5000	-142.0000	  22.5000	  -0.0543	  -3.0870	   0.4891	  18.3788	  13.2212	
   0.0000	-142.0000	  22.5000	   0.0000	  -3.0870	   0.4891	  19.4170	  14.6979	
   2.5000	-142.0000	  22.5000	   0.0543	  -3.0870	   0.4891	  20.4531	  16.4250	
   5.0000	-142.0000	  22.5000	   0.1087	  -3.0870	   0.4891	  21.4887	  18.2175	
   7.5000	-142.0000	  22.5000	   0.1630	  -3.0870	   0.4891	  22.5244	  20.0100	
  10.0000	-142.0000	  22.5000	   0.2174	  -3.0870	   0.4891	  23.8907	  21.6851	
  12.5000	-142.0000	  22.5000	   0.2717	  -3.0870	   0.4891	  26.5250	  22.9100	
  15.0000	-142.0000	  22.5000	   0.3261	  -3.0870	   0.4891	  29.4900	  24.0175	
  17.5000	-142.0000	  22.5000	   0.3804	  -3.0870	   0.4891	  32.4550	  25.1250	
  20.0000	-142.0000	  22.5000	   0.4348	  -3.0870	   0.4891	  35.4200	  26.2325	
 -20.0000	-142.0000	  25.0000	  -0.4348	  -3.0870	   0.5435	  11.8800	   6.8000	
 -17.5000	-142.0000	  25.0000	  -0.3804	  -3.0870	   0.5435	  12.8059	   7.3044	
 -15.0000	-142.0000	  25.0000	  -0.3261	  -3.0870	   0.5435	  13.7781	   7.8456	
 -12.5000	-142.0000	  25.0000	  -0.2717	  -3.0870	   0.5435	  14.7854	   8.3819	
 -10.0000	-142.0000	  25.0000	  -0.2174	  -3.0870	   0.5435	  15.8300	   8.8700	
  -7.5000	-142.0000	  25.0000	  -0.1630	  -3.0870	   0.5435	  16.8814	  10.1936	
  -5.0000	-142.0000	  25.0000	  -0.1087	  -3.0870	   0.5435	  17.9500	  11.4819	
  -2.5000	-142.0000	  25.0000	  -0.0543	  -3.0870	   0.5435	  19.0940	  12.7397	
   0.0000	-142.0000	  25.0000	   0.0000	  -3.0870	   0.5435	  20.4000	  13.9600	
   2.5000	-142.0000	  25.0000	   0.0543	  -3.0870	   0.5435	  20.7471	  15.2647	
   5.0000	-142.0000	  25.0000	   0.1087	  -3.0870	   0.5435	  21.3039	  16.5942	
   7.5000	-142.0000	  25.0000	   0.1630	  -3.0870	   0.5435	  21.8406	  17.7686	
  10.0000	-142.0000	  25.0000	   0.2174	  -3.0870	   0.5435	  22.1200	  18.5500	
  12.5000	-142.0000	  25.0000	   0.2717	  -3.0870	   0.5435	  25.0949	  20.3996	
  15.0000	-142.0000	  25.0000	   0.3261	  -3.0870	   0.5435	  27.8950	  21.8700	
  17.5000	-142.0000	  25.0000	   0.3804	  -3.0870	   0.5435	  30.5099	  23.1576	
  20.0000	-142.0000	  25.0000	   0.4348	  -3.0870	   0.5435	  32.8600	  24.3900	
 -20.0000	-142.0000	  27.5000	  -0.4348	  -3.0870	   0.5978	  11.7925	   6.8825	
 -17.5000	-142.0000	  27.5000	  -0.3804	  -3.0870	   0.5978	  12.8637	   7.4238	
 -15.0000	-142.0000	  27.5000	  -0.3261	  -3.0870	   0.5978	  13.9350	   7.9650	
 -12.5000	-142.0000	  27.5000	  -0.2717	  -3.0870	   0.5978	  15.0063	   8.5062	
 -10.0000	-142.0000	  27.5000	  -0.2174	  -3.0870	   0.5978	  16.0713	   9.1496	
  -7.5000	-142.0000	  27.5000	  -0.1630	  -3.0870	   0.5978	  17.1125	  10.1844	
  -5.0000	-142.0000	  27.5000	  -0.1087	  -3.0870	   0.5978	  18.1475	  11.3212	
  -2.5000	-142.0000	  27.5000	  -0.0543	  -3.0870	   0.5978	  19.1825	  12.4581	
   0.0000	-142.0000	  27.5000	   0.0000	  -3.0870	   0.5978	  20.1267	  13.5907	
   2.5000	-142.0000	  27.5000	   0.0543	  -3.0870	   0.5978	  20.7231	  14.7069	
   5.0000	-142.0000	  27.5000	   0.1087	  -3.0870	   0.5978	  21.2288	  15.8188	
   7.5000	-142.0000	  27.5000	   0.1630	  -3.0870	   0.5978	  21.7344	  16.9306	
  10.0000	-142.0000	  27.5000	   0.2174	  -3.0870	   0.5978	  22.5881	  18.0816	
  12.5000	-142.0000	  27.5000	   0.2717	  -3.0870	   0.5978	  24.7763	  19.3825	
  15.0000	-142.0000	  27.5000	   0.3261	  -3.0870	   0.5978	  27.3125	  20.7225	
  17.5000	-142.0000	  27.5000	   0.3804	  -3.0870	   0.5978	  29.8488	  22.0625	
  20.0000	-142.0000	  27.5000	   0.4348	  -3.0870	   0.5978	  32.3850	  23.4025	
 -20.0000	-142.0000	  30.0000	  -0.4348	  -3.0870	   0.6522	  11.7050	   6.9650	
 -17.5000	-142.0000	  30.0000	  -0.3804	  -3.0870	   0.6522	  12.8600	   7.5300	
 -15.0000	-142.0000	  30.0000	  -0.3261	  -3.0870	   0.6522	  14.0150	   8.0950	
 -12.5000	-142.0000	  30.0000	  -0.2717	  -3.0870	   0.6522	  15.1700	   8.6600	
 -10.0000	-142.0000	  30.0000	  -0.2174	  -3.0870	   0.6522	  16.2744	   9.3219	
  -7.5000	-142.0000	  30.0000	  -0.1630	  -3.0870	   0.6522	  17.2525	  10.2262	
  -5.0000	-142.0000	  30.0000	  -0.1087	  -3.0870	   0.6522	  18.1800	  11.2275	
  -2.5000	-142.0000	  30.0000	  -0.0543	  -3.0870	   0.6522	  19.1075	  12.2287	
   0.0000	-142.0000	  30.0000	   0.0000	  -3.0870	   0.6522	  19.9581	  13.2467	
   2.5000	-142.0000	  30.0000	   0.0543	  -3.0870	   0.6522	  20.6163	  14.3063	
   5.0000	-142.0000	  30.0000	   0.1087	  -3.0870	   0.6522	  21.1975	  15.3825	
   7.5000	-142.0000	  30.0000	   0.1630	  -3.0870	   0.6522	  21.7787	  16.4587	
  10.0000	-142.0000	  30.0000	   0.2174	  -3.0870	   0.6522	  22.7614	  17.5669	
  12.5000	-142.0000	  30.0000	   0.2717	  -3.0870	   0.6522	  24.7475	  18.7550	
  15.0000	-142.0000	  30.0000	   0.3261	  -3.0870	   0.6522	  27.1350	  19.9750	
  17.5000	-142.0000	  30.0000	   0.3804	  -3.0870	   0.6522	  29.5225	  21.1950	
  20.0000	-142.0000	  30.0000	   0.4348	  -3.0870	   0.6522	  31.9100	  22.4150	
 -20.0000	-142.0000	  32.5000	  -0.4348	  -3.0870	   0.7065	  11.6175	   7.0475	
 -17.5000	-142.0000	  32.5000	  -0.3804	  -3.0870	   0.7065	  12.8562	   7.6363	
 -15.0000	-142.0000	  32.5000	  -0.3261	  -3.0870	   0.7065	  14.0950	   8.2250	
 -12.5000	-142.0000	  32.5000	  -0.2717	  -3.0870	   0.7065	  15.3338	   8.8137	
 -10.0000	-142.0000	  32.5000	  -0.2174	  -3.0870	   0.7065	  16.5007	   9.4500	
  -7.5000	-142.0000	  32.5000	  -0.1630	  -3.0870	   0.7065	  17.3925	  10.2681	
  -5.0000	-142.0000	  32.5000	  -0.1087	  -3.0870	   0.7065	  18.2125	  11.1337	
  -2.5000	-142.0000	  32.5000	  -0.0543	  -3.0870	   0.7065	  19.0325	  11.9994	
   0.0000	-142.0000	  32.5000	   0.0000	  -3.0870	   0.7065	  19.8245	  12.8950	
   2.5000	-142.0000	  32.5000	   0.0543	  -3.0870	   0.7065	  20.5094	  13.9056	
   5.0000	-142.0000	  32.5000	   0.1087	  -3.0870	   0.7065	  21.1662	  14.9462	
   7.5000	-142.0000	  32.5000	   0.1630	  -3.0870	   0.7065	  21.8231	  15.9869	
  10.0000	-142.0000	  32.5000	   0.2174	  -3.0870	   0.7065	  22.7512	  17.0377	
  12.5000	-142.0000	  32.5000	   0.2717	  -3.0870	   0.7065	  24.7188	  18.1275	
  15.0000	-142.0000	  32.5000	   0.3261	  -3.0870	   0.7065	  26.9575	  19.2275	
  17.5000	-142.0000	  32.5000	   0.3804	  -3.0870	   0.7065	  29.1962	  20.3275	
  20.0000	-142.0000	  32.5000	   0.4348	  -3.0870	   0.7065	  31.4350	  21.4275	
 -20.0000	-142.0000	  35.0000	  -0.4348	  -3.0870	   0.7609	  11.5300	   7.1300	
 -17.5000	-142.0000	  35.0000	  -0.3804	  -3.0870	   0.7609	  12.8247	   7.7367	
 -15.0000	-142.0000	  35.0000	  -0.3261	  -3.0870	   0.7609	  14.1225	   8.3561	
 -12.5000	-142.0000	  35.0000	  -0.2717	  -3.0870	   0.7609	  15.4443	   8.9750	
 -10.0000	-142.0000	  35.0000	  -0.2174	  -3.0870	   0.7609	  16.8200	   9.5800	
  -7.5000	-142.0000	  35.0000	  -0.1630	  -3.0870	   0.7609	  17.4853	  10.3356	
  -5.0000	-142.0000	  35.0000	  -0.1087	  -3.0870	   0.7609	  18.2081	  11.0881	
  -2.5000	-142.0000	  35.0000	  -0.0543	  -3.0870	   0.7609	  18.9477	  11.8185	
   0.0000	-142.0000	  35.0000	   0.0000	  -3.0870	   0.7609	  19.6700	  12.5000	
   2.5000	-142.0000	  35.0000	   0.0543	  -3.0870	   0.7609	  20.3952	  13.5474	
   5.0000	-142.0000	  35.0000	   0.1087	  -3.0870	   0.7609	  21.1044	  14.5422	
   7.5000	-142.0000	  35.0000	   0.1630	  -3.0870	   0.7609	  21.8276	  15.5223	
  10.0000	-142.0000	  35.0000	   0.2174	  -3.0870	   0.7609	  22.6000	  16.5200	
  12.5000	-142.0000	  35.0000	   0.2717	  -3.0870	   0.7609	  24.6172	  17.4906	
  15.0000	-142.0000	  35.0000	   0.3261	  -3.0870	   0.7609	  26.6642	  18.4689	
  17.5000	-142.0000	  35.0000	   0.3804	  -3.0870	   0.7609	  28.7640	  19.4523	
  20.0000	-142.0000	  35.0000	   0.4348	  -3.0870	   0.7609	  30.9600	  20.4400	
 -20.0000	-142.0000	  37.5000	  -0.4348	  -3.0870	   0.8152	  11.3550	   7.1400	
 -17.5000	-142.0000	  37.5000	  -0.3804	  -3.0870	   0.8152	  12.6869	   7.8150	
 -15.0000	-142.0000	  37.5000	  -0.3261	  -3.0870	   0.8152	  14.0187	   8.4900	
 -12.5000	-142.0000	  37.5000	  -0.2717	  -3.0870	   0.8152	  15.3506	   9.1650	
 -10.0000	-142.0000	  37.5000	  -0.2174	  -3.0870	   0.8152	  16.5766	   9.8376	
  -7.5000	-142.0000	  37.5000	  -0.1630	  -3.0870	   0.8152	  17.3969	  10.5012	
  -5.0000	-142.0000	  37.5000	  -0.1087	  -3.0870	   0.8152	  18.1112	  11.1625	
  -2.5000	-142.0000	  37.5000	  -0.0543	  -3.0870	   0.8152	  18.8256	  11.8238	
   0.0000	-142.0000	  37.5000	   0.0000	  -3.0870	   0.8152	  19.5398	  12.5203	
   2.5000	-142.0000	  37.5000	   0.0543	  -3.0870	   0.8152	  20.2531	  13.3519	
   5.0000	-142.0000	  37.5000	   0.1087	  -3.0870	   0.8152	  20.9662	  14.2187	
   7.5000	-142.0000	  37.5000	   0.1630	  -3.0870	   0.8152	  21.6794	  15.0856	
  10.0000	-142.0000	  37.5000	   0.2174	  -3.0870	   0.8152	  22.5864	  15.9522	
  12.5000	-142.0000	  37.5000	   0.2717	  -3.0870	   0.8152	  24.2369	  16.8175	
  15.0000	-142.0000	  37.5000	   0.3261	  -3.0870	   0.8152	  26.0812	  17.6825	
  17.5000	-142.0000	  37.5000	   0.3804	  -3.0870	   0.8152	  27.9256	  18.5475	
  20.0000	-142.0000	  37.5000	   0.4348	  -3.0870	   0.8152	  29.7700	  19.4125	
 -20.0000	-142.0000	  40.0000	  -0.4348	  -3.0870	   0.8696	  11.1800	   7.1500	
 -17.5000	-142.0000	  40.0000	  -0.3804	  -3.0870	   0.8696	  12.5212	   7.8875	
 -15.0000	-142.0000	  40.0000	  -0.3261	  -3.0870	   0.8696	  13.8625	   8.6250	
 -12.5000	-142.0000	  40.0000	  -0.2717	  -3.0870	   0.8696	  15.2037	   9.3625	
 -10.0000	-142.0000	  40.0000	  -0.2174	  -3.0870	   0.8696	  16.4061	  10.0678	
  -7.5000	-142.0000	  40.0000	  -0.1630	  -3.0870	   0.8696	  17.2612	  10.6925	
  -5.0000	-142.0000	  40.0000	  -0.1087	  -3.0870	   0.8696	  17.9775	  11.2850	
  -2.5000	-142.0000	  40.0000	  -0.0543	  -3.0870	   0.8696	  18.6938	  11.8775	
   0.0000	-142.0000	  40.0000	   0.0000	  -3.0870	   0.8696	  19.4050	  12.5003	
   2.5000	-142.0000	  40.0000	   0.0543	  -3.0870	   0.8696	  20.1038	  13.1988	
   5.0000	-142.0000	  40.0000	   0.1087	  -3.0870	   0.8696	  20.7975	  13.9275	
   7.5000	-142.0000	  40.0000	   0.1630	  -3.0870	   0.8696	  21.4913	  14.6562	
  10.0000	-142.0000	  40.0000	   0.2174	  -3.0870	   0.8696	  22.3861	  15.3897	
  12.5000	-142.0000	  40.0000	   0.2717	  -3.0870	   0.8696	  23.7837	  16.1350	
  15.0000	-142.0000	  40.0000	   0.3261	  -3.0870	   0.8696	  25.3825	  16.8850	
  17.5000	-142.0000	  40.0000	   0.3804	  -3.0870	   0.8696	  26.9813	  17.6350	
  20.0000	-142.0000	  40.0000	   0.4348	  -3.0870	   0.8696	  28.5800	  18.3850	
 -20.0000	-142.0000	  42.5000	  -0.4348	  -3.0870	   0.9239	  11.0050	   7.1600	
 -17.5000	-142.0000	  42.5000	  -0.3804	  -3.0870	   0.9239	  12.3556	   7.9600	
 -15.0000	-142.0000	  42.5000	  -0.3261	  -3.0870	   0.9239	  13.7063	   8.7600	
 -12.5000	-142.0000	  42.5000	  -0.2717	  -3.0870	   0.9239	  15.0569	   9.5600	
 -10.0000	-142.0000	  42.5000	  -0.2174	  -3.0870	   0.9239	  16.2991	  10.3126	
  -7.5000	-142.0000	  42.5000	  -0.1630	  -3.0870	   0.9239	  17.1256	  10.8837	
  -5.0000	-142.0000	  42.5000	  -0.1087	  -3.0870	   0.9239	  17.8438	  11.4075	
  -2.5000	-142.0000	  42.5000	  -0.0543	  -3.0870	   0.9239	  18.5619	  11.9312	
   0.0000	-142.0000	  42.5000	   0.0000	  -3.0870	   0.9239	  19.2725	  12.4665	
   2.5000	-142.0000	  42.5000	   0.0543	  -3.0870	   0.9239	  19.9544	  13.0456	
   5.0000	-142.0000	  42.5000	   0.1087	  -3.0870	   0.9239	  20.6287	  13.6363	
   7.5000	-142.0000	  42.5000	   0.1630	  -3.0870	   0.9239	  21.3031	  14.2269	
  10.0000	-142.0000	  42.5000	   0.2174	  -3.0870	   0.9239	  22.0939	  14.8251	
  12.5000	-142.0000	  42.5000	   0.2717	  -3.0870	   0.9239	  23.3306	  15.4525	
  15.0000	-142.0000	  42.5000	   0.3261	  -3.0870	   0.9239	  24.6837	  16.0875	
  17.5000	-142.0000	  42.5000	   0.3804	  -3.0870	   0.9239	  26.0369	  16.7225	
  20.0000	-142.0000	  42.5000	   0.4348	  -3.0870	   0.9239	  27.3900	  17.3575	
 -20.0000	-142.0000	  45.0000	  -0.4348	  -3.0870	   0.9783	  10.8300	   7.1700	
 -17.5000	-142.0000	  45.0000	  -0.3804	  -3.0870	   0.9783	  12.1160	   8.0023	
 -15.0000	-142.0000	  45.0000	  -0.3261	  -3.0870	   0.9783	  13.4142	   8.8217	
 -12.5000	-142.0000	  45.0000	  -0.2717	  -3.0870	   0.9783	  14.7745	   9.6746	
 -10.0000	-142.0000	  45.0000	  -0.2174	  -3.0870	   0.9783	  16.2700	  10.6200	
  -7.5000	-142.0000	  45.0000	  -0.1630	  -3.0870	   0.9783	  16.8127	  10.9749	
  -5.0000	-142.0000	  45.0000	  -0.1087	  -3.0870	   0.9783	  17.4658	  11.4122	
  -2.5000	-142.0000	  45.0000	  -0.0543	  -3.0870	   0.9783	  18.2306	  11.9034	
   0.0000	-142.0000	  45.0000	   0.0000	  -3.0870	   0.9783	  19.1500	  12.4400	
   2.5000	-142.0000	  45.0000	   0.0543	  -3.0870	   0.9783	  19.5905	  12.8385	
   5.0000	-142.0000	  45.0000	   0.1087	  -3.0870	   0.9783	  20.1767	  13.2989	
   7.5000	-142.0000	  45.0000	   0.1630	  -3.0870	   0.9783	  20.8924	  13.7804	
  10.0000	-142.0000	  45.0000	   0.2174	  -3.0870	   0.9783	  21.7700	  14.2500	
  12.5000	-142.0000	  45.0000	   0.2717	  -3.0870	   0.9783	  22.6525	  14.7690	
  15.0000	-142.0000	  45.0000	   0.3261	  -3.0870	   0.9783	  23.6956	  15.2858	
  17.5000	-142.0000	  45.0000	   0.3804	  -3.0870	   0.9783	  24.8709	  15.8045	
  20.0000	-142.0000	  45.0000	   0.4348	  -3.0870	   0.9783	  26.2000	  16.3300	
 -20.0000	-142.0000	  47.5000	  -0.4348	  -3.0870	   1.0326	  10.4025	   7.1575	
 -17.5000	-142.0000	  47.5000	  -0.3804	  -3.0870	   1.0326	  11.5925	   7.9287	
 -15.0000	-142.0000	  47.5000	  -0.3261	  -3.0870	   1.0326	  12.7825	   8.7000	
 -12.5000	-142.0000	  47.5000	  -0.2717	  -3.0870	   1.0326	  13.9725	   9.4712	
 -10.0000	-142.0000	  47.5000	  -0.2174	  -3.0870	   1.0326	  15.0712	  10.1857	
  -7.5000	-142.0000	  47.5000	  -0.1630	  -3.0870	   1.0326	  15.8200	  10.6825	
  -5.0000	-142.0000	  47.5000	  -0.1087	  -3.0870	   1.0326	  16.4775	  11.1225	
  -2.5000	-142.0000	  47.5000	  -0.0543	  -3.0870	   1.0326	  17.1350	  11.5625	
   0.0000	-142.0000	  47.5000	   0.0000	  -3.0870	   1.0326	  17.7847	  11.9994	
   2.5000	-142.0000	  47.5000	   0.0543	  -3.0870	   1.0326	  18.4044	  12.4244	
   5.0000	-142.0000	  47.5000	   0.1087	  -3.0870	   1.0326	  19.0162	  12.8462	
   7.5000	-142.0000	  47.5000	   0.1630	  -3.0870	   1.0326	  19.6281	  13.2681	
  10.0000	-142.0000	  47.5000	   0.2174	  -3.0870	   1.0326	  20.2846	  13.6849	
  12.5000	-142.0000	  47.5000	   0.2717	  -3.0870	   1.0326	  21.1119	  14.0819	
  15.0000	-142.0000	  47.5000	   0.3261	  -3.0870	   1.0326	  21.9838	  14.4737	
  17.5000	-142.0000	  47.5000	   0.3804	  -3.0870	   1.0326	  22.8556	  14.8656	
  20.0000	-142.0000	  47.5000	   0.4348	  -3.0870	   1.0326	  23.7275	  15.2575	
 -20.0000	-142.0000	  50.0000	  -0.4348	  -3.0870	   1.0870	   9.9750	   7.1450	
 -17.5000	-142.0000	  50.0000	  -0.3804	  -3.0870	   1.0870	  10.9950	   7.8250	
 -15.0000	-142.0000	  50.0000	  -0.3261	  -3.0870	   1.0870	  12.0150	   8.5050	
 -12.5000	-142.0000	  50.0000	  -0.2717	  -3.0870	   1.0870	  13.0350	   9.1850	
 -10.0000	-142.0000	  50.0000	  -0.2174	  -3.0870	   1.0870	  13.9606	   9.8083	
  -7.5000	-142.0000	  50.0000	  -0.1630	  -3.0870	   1.0870	  14.6500	  10.2900	
  -5.0000	-142.0000	  50.0000	  -0.1087	  -3.0870	   1.0870	  15.2450	  10.7150	
  -2.5000	-142.0000	  50.0000	  -0.0543	  -3.0870	   1.0870	  15.8400	  11.1400	
   0.0000	-142.0000	  50.0000	   0.0000	  -3.0870	   1.0870	  16.4292	  11.5575	
   2.5000	-142.0000	  50.0000	   0.0543	  -3.0870	   1.0870	  17.0038	  11.9563	
   5.0000	-142.0000	  50.0000	   0.1087	  -3.0870	   1.0870	  17.5725	  12.3475	
   7.5000	-142.0000	  50.0000	   0.1630	  -3.0870	   1.0870	  18.1412	  12.7387	
  10.0000	-142.0000	  50.0000	   0.2174	  -3.0870	   1.0870	  18.7250	  13.1017	
  12.5000	-142.0000	  50.0000	   0.2717	  -3.0870	   1.0870	  19.3462	  13.3938	
  15.0000	-142.0000	  50.0000	   0.3261	  -3.0870	   1.0870	  19.9825	  13.6575	
  17.5000	-142.0000	  50.0000	   0.3804	  -3.0870	   1.0870	  20.6188	  13.9213	
  20.0000	-142.0000	  50.0000	   0.4348	  -3.0870	   1.0870	  21.2550	  14.1850	
 -20.0000	-142.0000	  52.5000	  -0.4348	  -3.0870	   1.1413	   9.5475	   7.1325	
 -17.5000	-142.0000	  52.5000	  -0.3804	  -3.0870	   1.1413	  10.3975	   7.7212	
 -15.0000	-142.0000	  52.5000	  -0.3261	  -3.0870	   1.1413	  11.2475	   8.3100	
 -12.5000	-142.0000	  52.5000	  -0.2717	  -3.0870	   1.1413	  12.0975	   8.8987	
 -10.0000	-142.0000	  52.5000	  -0.2174	  -3.0870	   1.1413	  12.8931	   9.4569	
  -7.5000	-142.0000	  52.5000	  -0.1630	  -3.0870	   1.1413	  13.4800	   9.8975	
  -5.0000	-142.0000	  52.5000	  -0.1087	  -3.0870	   1.1413	  14.0125	  10.3075	
  -2.5000	-142.0000	  52.5000	  -0.0543	  -3.0870	   1.1413	  14.5450	  10.7175	
   0.0000	-142.0000	  52.5000	   0.0000	  -3.0870	   1.1413	  15.0763	  11.1190	
   2.5000	-142.0000	  52.5000	   0.0543	  -3.0870	   1.1413	  15.6031	  11.4881	
   5.0000	-142.0000	  52.5000	   0.1087	  -3.0870	   1.1413	  16.1288	  11.8487	
   7.5000	-142.0000	  52.5000	   0.1630	  -3.0870	   1.1413	  16.6544	  12.2094	
  10.0000	-142.0000	  52.5000	   0.2174	  -3.0870	   1.1413	  17.1586	  12.5314	
  12.5000	-142.0000	  52.5000	   0.2717	  -3.0870	   1.1413	  17.5806	  12.7056	
  15.0000	-142.0000	  52.5000	   0.3261	  -3.0870	   1.1413	  17.9812	  12.8412	
  17.5000	-142.0000	  52.5000	   0.3804	  -3.0870	   1.1413	  18.3819	  12.9769	
  20.0000	-142.0000	  52.5000	   0.4348	  -3.0870	   1.1413	  18.7825	  13.1125	
 -20.0000	-142.0000	  55.0000	  -0.4348	  -3.0870	   1.1957	   9.1200	   7.1200	
 -17.5000	-142.0000	  55.0000	  -0.3804	  -3.0870	   1.1957	   9.7227	   7.5937	
 -15.0000	-142.0000	  55.0000	  -0.3261	  -3.0870	   1.1957	  10.3797	   8.0856	
 -12.5000	-142.0000	  55.0000	  -0.2717	  -3.0870	   1.1957	  11.0825	   8.5909	
 -10.0000	-142.0000	  55.0000	  -0.2174	  -3.0870	   1.1957	  11.8400	   9.1100	
  -7.5000	-142.0000	  55.0000	  -0.1630	  -3.0870	   1.1957	  12.2183	   9.4659	
  -5.0000	-142.0000	  55.0000	  -0.1087	  -3.0870	   1.1957	  12.6428	   9.8253	
  -2.5000	-142.0000	  55.0000	  -0.0543	  -3.0870	   1.1957	  13.1300	  10.2188	
   0.0000	-142.0000	  55.0000	   0.0000	  -3.0870	   1.1957	  13.7200	  10.6900	
   2.5000	-142.0000	  55.0000	   0.0543	  -3.0870	   1.1957	  14.0424	  10.9103	
   5.0000	-142.0000	  55.0000	   0.1087	  -3.0870	   1.1957	  14.4439	  11.1883	
   7.5000	-142.0000	  55.0000	   0.1630	  -3.0870	   1.1957	  14.9556	  11.5403	
  10.0000	-142.0000	  55.0000	   0.2174	  -3.0870	   1.1957	  15.6500	  12.0100	
  12.5000	-142.0000	  55.0000	   0.2717	  -3.0870	   1.1957	  15.5885	  11.8572	
  15.0000	-142.0000	  55.0000	   0.3261	  -3.0870	   1.1957	  15.7011	  11.8100	
  17.5000	-142.0000	  55.0000	   0.3804	  -3.0870	   1.1957	  15.9412	  11.8611	
  20.0000	-142.0000	  55.0000	   0.4348	  -3.0870	   1.1957	  16.3100	  12.0400	
 -20.0000	-142.0000	  57.5000	  -0.4348	  -3.0870	   1.2500	   8.2425	   6.9625	
 -17.5000	-142.0000	  57.5000	  -0.3804	  -3.0870	   1.2500	   8.7519	   7.3750	
 -15.0000	-142.0000	  57.5000	  -0.3261	  -3.0870	   1.2500	   9.2613	   7.7875	
 -12.5000	-142.0000	  57.5000	  -0.2717	  -3.0870	   1.2500	   9.7706	   8.2000	
 -10.0000	-142.0000	  57.5000	  -0.2174	  -3.0870	   1.2500	  10.2484	   8.5884	
  -7.5000	-142.0000	  57.5000	  -0.1630	  -3.0870	   1.2500	  10.6050	   8.8844	
  -5.0000	-142.0000	  57.5000	  -0.1087	  -3.0870	   1.2500	  10.9300	   9.1562	