Variables = "x [mm]"	"y [mm]"	"z [mm]"	"x/H"	"y/H"	"z/H"	"U [m/s]"	"W [m/s]"	"Length [m/s]"	"U/U<sub>ref</sub>"	"W/U<sub>ref</sub>"	"Std_U/U<sub>ref</sub>"	"Std_W/U<sub>ref</sub>"	"TKE/U<sub>ref</sub><sup>2</sup>"	"u'w'/U<sub>ref</sub><sup>2</sup> "	"Corr-coeff"	"Skew_U"	"Skew_W"	"Kurt_U"	"Kurt_W"	"Length/U<sub>ref</sub>"	
Zone T = "y=148mm_ImgMean_16x32x64_MovingAvg3x3" I=65 J=40 F=POINT
 -80.0000	 148.0000	   2.5000	  -1.7391	   3.2174	   0.0543	  -0.0002	   0.0000	   0.0003	  -0.0000	   0.0000	   0.0000	  -0.0000	   0.0000	   0.0000	  -0.0002	  -0.0023	  -0.0261	  -0.0127	  -1.0737	   0.0001	
 -77.5000	 148.0000	   2.5000	  -1.6848	   3.2174	   0.0543	  -0.0001	   0.0000	   0.0001	  -0.0000	   0.0000	   0.0000	  -0.0000	   0.0000	   0.0000	  -0.0001	  -0.0013	  -0.0149	  -0.0042	  -0.6170	   0.0000	
 -75.0000	 148.0000	   2.5000	  -1.6304	   3.2174	   0.0543	  -0.0001	   0.0000	   0.0001	  -0.0000	   0.0000	   0.0000	  -0.0000	   0.0000	   0.0000	  -0.0001	  -0.0013	  -0.0148	  -0.0031	  -0.6099	   0.0000	
 -72.5000	 148.0000	   2.5000	  -1.5761	   3.2174	   0.0543	  -0.0001	   0.0000	   0.0001	  -0.0000	   0.0000	   0.0000	  -0.0000	   0.0000	   0.0000	  -0.0001	  -0.0013	  -0.0146	  -0.0017	  -0.6056	   0.0000	
 -70.0000	 148.0000	   2.5000	  -1.5217	   3.2174	   0.0543	  -0.0001	   0.0000	   0.0001	  -0.0000	   0.0000	   0.0000	  -0.0000	   0.0000	   0.0000	  -0.0001	  -0.0013	  -0.0149	  -0.0003	  -0.6177	   0.0000	
 -67.5000	 148.0000	   2.5000	  -1.4674	   3.2174	   0.0543	  -0.0001	   0.0000	   0.0001	  -0.0000	   0.0000	   0.0000	  -0.0000	   0.0000	   0.0000	  -0.0001	  -0.0013	  -0.0156	   0.0013	  -0.6445	   0.0000	
 -65.0000	 148.0000	   2.5000	  -1.4130	   3.2174	   0.0543	  -0.0000	   0.0000	   0.0001	  -0.0000	   0.0000	   0.0000	  -0.0000	   0.0000	   0.0000	  -0.0001	  -0.0014	  -0.0164	   0.0031	  -0.6810	   0.0000	
 -62.5000	 148.0000	   2.5000	  -1.3587	   3.2174	   0.0543	  -0.0000	   0.0000	   0.0001	  -0.0000	   0.0000	   0.0000	  -0.0000	   0.0000	   0.0000	  -0.0001	  -0.0015	  -0.0174	   0.0053	  -0.7220	   0.0000	
 -60.0000	 148.0000	   2.5000	  -1.3043	   3.2174	   0.0543	  -0.0000	   0.0000	   0.0001	  -0.0000	   0.0000	   0.0000	  -0.0000	   0.0000	   0.0000	  -0.0001	  -0.0016	  -0.0186	   0.0081	  -0.7700	   0.0000	
 -57.5000	 148.0000	   2.5000	  -1.2500	   3.2174	   0.0543	  -0.0000	   0.0000	   0.0001	  -0.0000	   0.0000	   0.0000	  -0.0000	   0.0000	   0.0000	  -0.0001	  -0.0017	  -0.0200	   0.0116	  -0.8319	   0.0000	
 -55.0000	 148.0000	   2.5000	  -1.1957	   3.2174	   0.0543	  -0.0000	   0.0000	   0.0001	  -0.0000	   0.0000	   0.0000	  -0.0000	  -0.0000	   0.0000	  -0.0001	  -0.0018	  -0.0219	   0.0162	  -0.9106	   0.0000	
 -52.5000	 148.0000	   2.5000	  -1.1413	   3.2174	   0.0543	  -0.0000	   0.0000	   0.0001	  -0.0000	   0.0000	   0.0000	  -0.0000	  -0.0000	   0.0000	  -0.0001	  -0.0020	  -0.0241	   0.0222	  -1.0032	   0.0000	
 -50.0000	 148.0000	   2.5000	  -1.0870	   3.2174	   0.0543	  -0.0000	   0.0000	   0.0001	  -0.0000	   0.0000	   0.0000	  -0.0000	  -0.0000	   0.0000	  -0.0001	  -0.0022	  -0.0266	   0.0299	  -1.1080	   0.0000	
 -47.5000	 148.0000	   2.5000	  -1.0326	   3.2174	   0.0543	  -0.0000	   0.0000	   0.0001	  -0.0000	   0.0000	   0.0000	  -0.0000	  -0.0000	   0.0000	  -0.0001	  -0.0024	  -0.0297	   0.0404	  -1.2367	   0.0000	
 -45.0000	 148.0000	   2.5000	  -0.9783	   3.2174	   0.0543	  -0.0000	   0.0000	   0.0001	  -0.0000	   0.0000	   0.0000	  -0.0000	  -0.0000	   0.0000	  -0.0001	  -0.0028	  -0.0337	   0.0554	  -1.4043	   0.0000	
 -42.5000	 148.0000	   2.5000	  -0.9239	   3.2174	   0.0543	  -0.0000	   0.0000	   0.0001	  -0.0000	   0.0000	   0.0000	  -0.0000	  -0.0000	   0.0000	  -0.0001	  -0.0032	  -0.0389	   0.0769	  -1.6213	   0.0000	
 -40.0000	 148.0000	   2.5000	  -0.8696	   3.2174	   0.0543	  -0.0000	   0.0000	   0.0001	  -0.0000	   0.0000	   0.0000	  -0.0000	  -0.0000	   0.0000	  -0.0001	  -0.0037	  -0.0454	   0.1083	  -1.8945	   0.0000	
 -37.5000	 148.0000	   2.5000	  -0.8152	   3.2174	   0.0543	  -0.0000	   0.0000	   0.0001	  -0.0000	   0.0000	   0.0000	  -0.0000	  -0.0000	   0.0000	  -0.0001	  -0.0043	  -0.0541	   0.1529	  -2.2641	   0.0000	
 -35.0000	 148.0000	   2.5000	  -0.7609	   3.2174	   0.0543	  -0.0000	  -0.0000	   0.0001	  -0.0000	  -0.0000	  -0.0000	  -0.0000	  -0.0000	   0.0000	  -0.0002	  -0.0057	  -0.0652	   0.2437	  -2.7225	   0.0000	
 -32.5000	 148.0000	   2.5000	  -0.7065	   3.2174	   0.0543	  -0.0000	  -0.0000	   0.0001	  -0.0000	  -0.0000	  -0.0000	  -0.0000	  -0.0000	   0.0000	  -0.0001	  -0.0056	  -0.0891	   0.3258	  -3.7736	   0.0000	
 -30.0000	 148.0000	   2.5000	  -0.6522	   3.2174	   0.0543	  -0.0001	  -0.0000	   0.0001	  -0.0000	  -0.0000	  -0.0000	  -0.0001	  -0.0000	   0.0000	  -0.0000	  -0.0053	  -0.1318	   0.4988	  -5.6643	   0.0000	
 -27.5000	 148.0000	   2.5000	  -0.5978	   3.2174	   0.0543	   0.0001	  -0.0004	   0.0005	   0.0000	  -0.0001	   0.0001	   0.0002	   0.0000	   0.0000	  -0.0025	  -0.1091	   0.0985	   4.2444	   6.4140	   0.0001	
 -25.0000	 148.0000	   2.5000	  -0.5435	   3.2174	   0.0543	  -0.0025	   0.0031	  -0.0040	  -0.0004	   0.0005	  -0.0018	  -0.0041	  -0.0002	  -0.0000	   0.0276	   0.9032	  -3.4176	 -25.8773	-168.2812	  -0.0007	
 -22.5000	 148.0000	   2.5000	  -0.4891	   3.2174	   0.0543	   0.0155	  -0.0223	   0.0267	   0.0026	  -0.0037	   0.0115	   0.0269	   0.0010	   0.0002	  -0.1959	  -6.7790	  21.7437	 215.9414	1085.5928	   0.0045	
 -20.0000	 148.0000	   2.5000	  -0.4348	   3.2174	   0.0543	   0.0811	  -0.0730	   0.1085	   0.0135	  -0.0122	   0.0300	   0.0478	   0.0023	  -0.0000	   0.0109	  -2.5625	  30.6624	 162.6046	1407.3883	   0.0181	
 -17.5000	 148.0000	   2.5000	  -0.3804	   3.2174	   0.0543	   0.1472	  -0.0569	   0.1568	   0.0245	  -0.0095	   0.0394	   0.0425	   0.0025	  -0.0004	   0.2135	   0.3597	  23.8240	  19.2513	 955.5151	   0.0261	
 -15.0000	 148.0000	   2.5000	  -0.3261	   3.2174	   0.0543	   0.2053	  -0.0135	   0.2053	   0.0342	  -0.0022	   0.0433	   0.0429	   0.0028	  -0.0002	   0.0949	  -0.4801	  29.9056	   3.4479	1294.2220	   0.0342	
 -12.5000	 148.0000	   2.5000	  -0.2717	   3.2174	   0.0543	   0.2446	   0.0135	   0.2450	   0.0408	   0.0023	   0.0460	   0.0412	   0.0029	  -0.0003	   0.1529	   0.4900	  28.8953	  27.5724	1265.8312	   0.0408	
 -10.0000	 148.0000	   2.5000	  -0.2174	   3.2174	   0.0543	   0.2922	   0.0238	   0.2934	   0.0487	   0.0040	   0.0496	   0.0302	   0.0026	  -0.0001	   0.0825	   0.2923	  19.2478	  20.3219	 889.3994	   0.0489	
  -7.5000	 148.0000	   2.5000	  -0.1630	   3.2174	   0.0543	   0.3159	   0.0356	   0.3180	   0.0527	   0.0059	   0.0514	   0.0266	   0.0025	   0.0000	  -0.0275	  -0.4225	  16.8135	   1.5439	 709.9529	   0.0530	
  -5.0000	 148.0000	   2.5000	  -0.1087	   3.2174	   0.0543	   0.3151	   0.0338	   0.3171	   0.0525	   0.0056	   0.0530	   0.0262	   0.0026	   0.0000	  -0.0264	  -0.3180	  11.7165	   2.8774	 361.9450	   0.0529	
  -2.5000	 148.0000	   2.5000	  -0.0543	   3.2174	   0.0543	   0.2862	   0.0301	   0.2881	   0.0477	   0.0050	   0.0525	   0.0268	   0.0026	   0.0000	  -0.0044	  -0.4441	  12.6232	   2.9809	 416.8984	   0.0480	
   0.0000	 148.0000	   2.5000	   0.0000	   3.2174	   0.0543	   0.2590	   0.0210	   0.2607	   0.0432	   0.0035	   0.0513	   0.0219	   0.0023	  -0.0000	   0.0116	  -0.6350	   4.5478	   3.1674	  78.6619	   0.0435	
   2.5000	 148.0000	   2.5000	   0.0543	   3.2174	   0.0543	   0.2275	   0.0165	   0.2293	   0.0379	   0.0027	   0.0515	   0.0202	   0.0023	   0.0000	  -0.0160	  -0.7273	   5.0258	   2.7523	 110.2571	   0.0382	
   5.0000	 148.0000	   2.5000	   0.1087	   3.2174	   0.0543	   0.1876	   0.0114	   0.1901	   0.0313	   0.0019	   0.0501	   0.0201	   0.0022	   0.0000	  -0.0220	  -0.6589	   7.1955	   0.4594	 194.3725	   0.0317	
   7.5000	 148.0000	   2.5000	   0.1630	   3.2174	   0.0543	   0.1464	   0.0128	   0.1487	   0.0244	   0.0021	   0.0490	   0.0289	   0.0024	  -0.0000	   0.0390	   0.3594	  20.3442	  27.0005	 825.0387	   0.0248	
  10.0000	 148.0000	   2.5000	   0.2174	   3.2174	   0.0543	   0.1257	   0.0321	   0.1292	   0.0209	   0.0054	   0.0494	   0.0407	   0.0031	  -0.0004	   0.1601	   2.3682	  24.6759	  82.0303	1022.3129	   0.0215	
  12.5000	 148.0000	   2.5000	   0.2717	   3.2174	   0.0543	   0.1034	   0.0429	   0.1115	   0.0172	   0.0071	   0.0513	   0.0526	   0.0041	  -0.0006	   0.1856	   5.0752	  29.2459	 177.3507	1110.0917	   0.0186	
  15.0000	 148.0000	   2.5000	   0.3261	   3.2174	   0.0543	   0.0567	   0.0426	   0.0716	   0.0094	   0.0071	   0.0440	   0.0501	   0.0034	  -0.0006	   0.2386	   2.6914	  27.4615	  83.6268	 962.4882	   0.0119	
  17.5000	 148.0000	   2.5000	   0.3804	   3.2174	   0.0543	   0.0154	   0.0314	   0.0410	   0.0026	   0.0052	   0.0316	   0.0262	   0.0012	  -0.0000	   0.0187	  -0.8254	  21.8512	  -0.7778	 834.2598	   0.0068	
  20.0000	 148.0000	   2.5000	   0.4348	   3.2174	   0.0543	   0.0033	  -0.0052	   0.0255	   0.0006	  -0.0009	   0.0210	   0.0192	   0.0006	  -0.0000	   0.0252	  -0.9262	   9.8556	  12.6492	 288.6013	   0.0042	
  22.5000	 148.0000	   2.5000	   0.4891	   3.2174	   0.0543	   0.0089	  -0.0161	   0.0152	   0.0015	  -0.0027	   0.0061	   0.0086	   0.0001	  -0.0000	   0.0670	  -0.3179	   4.2170	  12.9940	 167.1577	   0.0025	
  25.0000	 148.0000	   2.5000	   0.5435	   3.2174	   0.0543	  -0.0004	   0.0020	  -0.0016	  -0.0001	   0.0003	  -0.0009	  -0.0016	  -0.0000	   0.0000	  -0.0168	  -0.0338	  -1.2018	  -3.0656	 -44.9978	  -0.0003	
  27.5000	 148.0000	   2.5000	   0.5978	   3.2174	   0.0543	   0.0005	  -0.0001	   0.0005	   0.0001	  -0.0000	   0.0001	  -0.0001	  -0.0000	   0.0000	  -0.0023	  -0.0406	  -0.2025	  -0.5246	  -7.4581	   0.0001	
  30.0000	 148.0000	   2.5000	   0.6522	   3.2174	   0.0543	   0.0003	   0.0001	   0.0003	   0.0000	   0.0000	  -0.0000	  -0.0001	  -0.0000	   0.0000	  -0.0018	  -0.0231	  -0.1556	  -0.4674	  -5.9415	   0.0000	
  32.5000	 148.0000	   2.5000	   0.7065	   3.2174	   0.0543	   0.0002	   0.0001	   0.0002	   0.0000	   0.0000	   0.0000	  -0.0001	  -0.0000	   0.0000	  -0.0012	  -0.0161	  -0.1095	  -0.3458	  -4.2407	   0.0000	
  35.0000	 148.0000	   2.5000	   0.7609	   3.2174	   0.0543	   0.0001	   0.0000	   0.0002	   0.0000	   0.0000	   0.0000	  -0.0000	  -0.0000	   0.0000	  -0.0008	  -0.0123	  -0.0820	  -0.2632	  -3.2067	   0.0000	
  37.5000	 148.0000	   2.5000	   0.8152	   3.2174	   0.0543	   0.0001	   0.0000	   0.0002	   0.0000	   0.0000	   0.0000	  -0.0000	  -0.0000	   0.0000	  -0.0006	  -0.0097	  -0.0655	  -0.2111	  -2.5816	   0.0000	
  40.0000	 148.0000	   2.5000	   0.8696	   3.2174	   0.0543	   0.0001	   0.0000	   0.0001	   0.0000	   0.0000	   0.0000	  -0.0000	  -0.0000	   0.0000	  -0.0005	  -0.0079	  -0.0540	  -0.1731	  -2.1410	   0.0000	
  42.5000	 148.0000	   2.5000	   0.9239	   3.2174	   0.0543	   0.0000	   0.0000	   0.0001	   0.0000	   0.0000	   0.0000	  -0.0000	  -0.0000	   0.0000	  -0.0004	  -0.0066	  -0.0454	  -0.1439	  -1.8077	   0.0000	
  45.0000	 148.0000	   2.5000	   0.9783	   3.2174	   0.0543	   0.0000	   0.0000	   0.0001	   0.0000	   0.0000	   0.0000	  -0.0000	  -0.0000	   0.0000	  -0.0003	  -0.0055	  -0.0389	  -0.1212	  -1.5508	   0.0000	
  47.5000	 148.0000	   2.5000	   1.0326	   3.2174	   0.0543	   0.0000	   0.0000	   0.0001	   0.0000	   0.0000	   0.0000	  -0.0000	  -0.0000	   0.0000	  -0.0003	  -0.0048	  -0.0339	  -0.1040	  -1.3571	   0.0000	
  50.0000	 148.0000	   2.5000	   1.0870	   3.2174	   0.0543	   0.0000	   0.0000	   0.0001	   0.0000	   0.0000	   0.0000	  -0.0000	  -0.0000	   0.0000	  -0.0003	  -0.0042	  -0.0302	  -0.0908	  -1.2091	   0.0000	
  52.5000	 148.0000	   2.5000	   1.1413	   3.2174	   0.0543	   0.0000	   0.0000	   0.0001	   0.0000	   0.0000	   0.0000	  -0.0000	  -0.0000	   0.0000	  -0.0002	  -0.0037	  -0.0271	  -0.0799	  -1.0871	   0.0000	
  55.0000	 148.0000	   2.5000	   1.1957	   3.2174	   0.0543	  -0.0000	   0.0000	   0.0001	  -0.0000	   0.0000	   0.0000	  -0.0000	  -0.0000	   0.0000	  -0.0002	  -0.0033	  -0.0244	  -0.0706	  -0.9808	   0.0000	
  57.5000	 148.0000	   2.5000	   1.2500	   3.2174	   0.0543	  -0.0000	   0.0000	   0.0001	  -0.0000	   0.0000	   0.0000	  -0.0000	  -0.0000	   0.0000	  -0.0002	  -0.0029	  -0.0222	  -0.0629	  -0.8937	   0.0000	
  60.0000	 148.0000	   2.5000	   1.3043	   3.2174	   0.0543	  -0.0000	   0.0000	   0.0001	  -0.0000	   0.0000	   0.0000	  -0.0000	  -0.0000	   0.0000	  -0.0002	  -0.0027	  -0.0205	  -0.0570	  -0.8267	   0.0000	
  62.5000	 148.0000	   2.5000	   1.3587	   3.2174	   0.0543	  -0.0000	   0.0000	   0.0001	  -0.0000	   0.0000	   0.0000	  -0.0000	  -0.0000	   0.0000	  -0.0002	  -0.0025	  -0.0192	  -0.0522	  -0.7743	   0.0000	
  65.0000	 148.0000	   2.5000	   1.4130	   3.2174	   0.0543	  -0.0000	   0.0000	   0.0001	  -0.0000	   0.0000	   0.0000	  -0.0000	   0.0000	   0.0000	  -0.0001	  -0.0023	  -0.0180	  -0.0480	  -0.7291	   0.0000	
  67.5000	 148.0000	   2.5000	   1.4674	   3.2174	   0.0543	  -0.0000	   0.0000	   0.0001	  -0.0000	   0.0000	   0.0000	  -0.0000	   0.0000	   0.0000	  -0.0001	  -0.0022	  -0.0171	  -0.0445	  -0.6913	   0.0000	
  70.0000	 148.0000	   2.5000	   1.5217	   3.2174	   0.0543	  -0.0000	   0.0000	   0.0001	  -0.0000	   0.0000	   0.0000	  -0.0000	   0.0000	   0.0000	  -0.0001	  -0.0021	  -0.0165	  -0.0419	  -0.6686	   0.0000	
  72.5000	 148.0000	   2.5000	   1.5761	   3.2174	   0.0543	  -0.0001	   0.0000	   0.0001	  -0.0000	   0.0000	   0.0000	  -0.0000	   0.0000	   0.0000	  -0.0001	  -0.0020	  -0.0164	  -0.0405	  -0.6633	   0.0000	
  75.0000	 148.0000	   2.5000	   1.6304	   3.2174	   0.0543	  -0.0001	   0.0000	   0.0001	  -0.0000	   0.0000	   0.0000	  -0.0000	   0.0000	   0.0000	  -0.0001	  -0.0020	  -0.0168	  -0.0404	  -0.6834	   0.0000	
  77.5000	 148.0000	   2.5000	   1.6848	   3.2174	   0.0543	  -0.0001	   0.0000	   0.0002	  -0.0000	   0.0000	   0.0000	  -0.0000	   0.0000	   0.0000	  -0.0002	  -0.0027	  -0.0247	  -0.0527	  -1.0059	   0.0000	
  80.0000	 148.0000	   2.5000	   1.7391	   3.2174	   0.0543	   0.0002	   0.0000	  -0.0003	   0.0000	   0.0000	  -0.0000	  -0.0000	  -0.0000	  -0.0000	   0.0002	   0.0008	   0.0146	   0.0097	   0.6156	  -0.0000	
 -80.0000	 148.0000	   5.0000	  -1.7391	   3.2174	   0.1087	  -0.0000	  -0.0000	   0.0000	  -0.0000	  -0.0000	   0.0000	   0.0000	   0.0000	   0.0000	  -0.0000	   0.0002	   0.0017	  -0.0003	   0.0708	   0.0000	
 -77.5000	 148.0000	   5.0000	  -1.6848	   3.2174	   0.1087	   0.0000	  -0.0000	  -0.0000	   0.0000	  -0.0000	  -0.0000	   0.0000	  -0.0000	  -0.0000	   0.0000	   0.0003	   0.0029	   0.0010	   0.1203	  -0.0000	
 -75.0000	 148.0000	   5.0000	  -1.6304	   3.2174	   0.1087	   0.0000	  -0.0000	  -0.0000	   0.0000	  -0.0000	  -0.0000	   0.0000	  -0.0000	  -0.0000	   0.0000	   0.0002	   0.0025	   0.0005	   0.1038	  -0.0000	
 -72.5000	 148.0000	   5.0000	  -1.5761	   3.2174	   0.1087	   0.0000	  -0.0000	  -0.0000	   0.0000	  -0.0000	  -0.0000	   0.0000	  -0.0000	  -0.0000	   0.0000	   0.0002	   0.0025	   0.0003	   0.1030	  -0.0000	
 -70.0000	 148.0000	   5.0000	  -1.5217	   3.2174	   0.1087	   0.0000	  -0.0000	  -0.0000	   0.0000	  -0.0000	  -0.0000	   0.0000	  -0.0000	  -0.0000	   0.0000	   0.0002	   0.0025	   0.0000	   0.1055	  -0.0000	
 -67.5000	 148.0000	   5.0000	  -1.4674	   3.2174	   0.1087	   0.0000	  -0.0000	  -0.0000	   0.0000	  -0.0000	  -0.0000	   0.0000	  -0.0000	  -0.0000	   0.0000	   0.0002	   0.0026	  -0.0002	   0.1097	  -0.0000	
 -65.0000	 148.0000	   5.0000	  -1.4130	   3.2174	   0.1087	   0.0000	  -0.0000	  -0.0000	   0.0000	  -0.0000	  -0.0000	   0.0000	  -0.0000	  -0.0000	   0.0000	   0.0002	   0.0028	  -0.0005	   0.1153	  -0.0000	
 -62.5000	 148.0000	   5.0000	  -1.3587	   3.2174	   0.1087	   0.0000	  -0.0000	  -0.0000	   0.0000	  -0.0000	  -0.0000	   0.0000	  -0.0000	  -0.0000	   0.0000	   0.0003	   0.0030	  -0.0009	   0.1226	  -0.0000	
 -60.0000	 148.0000	   5.0000	  -1.3043	   3.2174	   0.1087	   0.0000	  -0.0000	  -0.0000	   0.0000	  -0.0000	  -0.0000	   0.0000	  -0.0000	  -0.0000	   0.0000	   0.0003	   0.0032	  -0.0014	   0.1312	  -0.0000	
 -57.5000	 148.0000	   5.0000	  -1.2500	   3.2174	   0.1087	   0.0000	  -0.0000	  -0.0000	   0.0000	  -0.0000	  -0.0000	   0.0000	  -0.0000	  -0.0000	   0.0000	   0.0003	   0.0034	  -0.0020	   0.1419	  -0.0000	
 -55.0000	 148.0000	   5.0000	  -1.1957	   3.2174	   0.1087	   0.0000	  -0.0000	  -0.0000	   0.0000	  -0.0000	  -0.0000	   0.0000	   0.0000	  -0.0000	   0.0000	   0.0003	   0.0037	  -0.0028	   0.1549	  -0.0000	
 -52.5000	 148.0000	   5.0000	  -1.1413	   3.2174	   0.1087	   0.0000	  -0.0000	  -0.0000	   0.0000	  -0.0000	  -0.0000	   0.0000	   0.0000	  -0.0000	   0.0000	   0.0003	   0.0041	  -0.0038	   0.1700	  -0.0000	
 -50.0000	 148.0000	   5.0000	  -1.0870	   3.2174	   0.1087	   0.0000	  -0.0000	  -0.0000	   0.0000	  -0.0000	  -0.0000	   0.0000	   0.0000	  -0.0000	   0.0000	   0.0004	   0.0045	  -0.0051	   0.1886	  -0.0000	
 -47.5000	 148.0000	   5.0000	  -1.0326	   3.2174	   0.1087	   0.0000	  -0.0000	  -0.0000	   0.0000	  -0.0000	  -0.0000	   0.0000	   0.0000	  -0.0000	   0.0000	   0.0004	   0.0051	  -0.0070	   0.2112	  -0.0000	
 -45.0000	 148.0000	   5.0000	  -0.9783	   3.2174	   0.1087	   0.0000	  -0.0000	  -0.0000	   0.0000	  -0.0000	  -0.0000	   0.0000	   0.0000	  -0.0000	   0.0000	   0.0005	   0.0058	  -0.0096	   0.2400	  -0.0000	
 -42.5000	 148.0000	   5.0000	  -0.9239	   3.2174	   0.1087	   0.0000	  -0.0000	  -0.0000	   0.0000	  -0.0000	  -0.0000	   0.0000	   0.0000	  -0.0000	   0.0000	   0.0005	   0.0066	  -0.0132	   0.2760	  -0.0000	
 -40.0000	 148.0000	   5.0000	  -0.8696	   3.2174	   0.1087	   0.0000	  -0.0000	  -0.0000	   0.0000	  -0.0000	  -0.0000	   0.0000	   0.0000	  -0.0000	   0.0000	   0.0006	   0.0077	  -0.0184	   0.3234	  -0.0000	
 -37.5000	 148.0000	   5.0000	  -0.8152	   3.2174	   0.1087	   0.0000	  -0.0000	  -0.0000	   0.0000	  -0.0000	  -0.0000	   0.0000	   0.0000	  -0.0000	   0.0000	   0.0008	   0.0091	  -0.0294	   0.3770	  -0.0000	
 -35.0000	 148.0000	   5.0000	  -0.7609	   3.2174	   0.1087	   0.0000	  -0.0000	  -0.0000	   0.0000	  -0.0000	   0.0000	   0.0000	   0.0000	  -0.0000	   0.0000	   0.0005	   0.0125	  -0.0258	   0.5348	  -0.0000	
 -32.5000	 148.0000	   5.0000	  -0.7065	   3.2174	   0.1087	   0.0000	   0.0000	  -0.0000	   0.0000	   0.0000	  -0.0000	  -0.0000	   0.0000	  -0.0000	   0.0001	   0.0027	   0.0112	  -0.1164	   0.4325	  -0.0000	
 -30.0000	 148.0000	   5.0000	  -0.6522	   3.2174	   0.1087	   0.0000	   0.0000	  -0.0000	   0.0000	   0.0000	  -0.0000	   0.0000	   0.0000	  -0.0000	   0.0001	   0.0046	   0.0133	  -0.2170	   0.4937	  -0.0000	
 -27.5000	 148.0000	   5.0000	  -0.5978	   3.2174	   0.1087	   0.0003	  -0.0007	   0.0008	   0.0000	  -0.0001	   0.0002	   0.0004	   0.0000	   0.0000	  -0.0017	  -0.0930	   0.2724	   3.1155	  13.8393	   0.0001	
 -25.0000	 148.0000	   5.0000	  -0.5435	   3.2174	   0.1087	  -0.0021	   0.0062	  -0.0066	  -0.0004	   0.0010	  -0.0012	  -0.0034	  -0.0001	  -0.0000	   0.0135	   0.8301	  -1.8972	 -30.2485	-100.2228	  -0.0011	
 -22.5000	 148.0000	   5.0000	  -0.4891	   3.2174	   0.1087	   0.0193	  -0.0504	   0.0541	   0.0032	  -0.0084	   0.0101	   0.0273	   0.0010	   0.0001	  -0.1135	  -7.0298	  16.5071	 262.3560	 865.6533	   0.0090	
 -20.0000	 148.0000	   5.0000	  -0.4348	   3.2174	   0.1087	   0.0534	  -0.1138	   0.1263	   0.0089	  -0.0190	   0.0270	   0.0453	   0.0020	  -0.0000	   0.0108	  -3.2205	  19.4033	 162.4440	 939.3800	   0.0210	
 -17.5000	 148.0000	   5.0000	  -0.3804	   3.2174	   0.1087	   0.0836	  -0.0947	   0.1291	   0.0139	  -0.0158	   0.0364	   0.0398	   0.0022	  -0.0003	   0.1978	  -0.1281	   7.7212	   3.7809	 301.9369	   0.0215	
 -15.0000	 148.0000	   5.0000	  -0.3261	   3.2174	   0.1087	   0.1146	  -0.0517	   0.1274	   0.0191	  -0.0086	   0.0443	   0.0381	   0.0026	  -0.0003	   0.1927	  -0.1391	   6.4798	   3.5954	 299.4166	   0.0212	
 -12.5000	 148.0000	   5.0000	  -0.2717	   3.2174	   0.1087	   0.1486	  -0.0080	   0.1486	   0.0248	  -0.0013	   0.0504	   0.0382	   0.0030	  -0.0003	   0.1648	  -0.1587	   4.6666	   2.0589	 163.4256	   0.0248	
 -10.0000	 148.0000	   5.0000	  -0.2174	   3.2174	   0.1087	   0.1786	   0.0312	   0.1814	   0.0298	   0.0052	   0.0544	   0.0347	   0.0031	  -0.0002	   0.0902	  -0.2904	   0.6881	   1.6666	 -16.2783	   0.0302	
  -7.5000	 148.0000	   5.0000	  -0.1630	   3.2174	   0.1087	   0.2018	   0.0539	   0.2091	   0.0336	   0.0090	   0.0569	   0.0327	   0.0032	  -0.0000	   0.0210	  -0.2787	  -0.5913	   3.5336	 -41.4491	   0.0348	
  -5.0000	 148.0000	   5.0000	  -0.1087	   3.2174	   0.1087	   0.2168	   0.0631	   0.2261	   0.0361	   0.0105	   0.0584	   0.0318	   0.0033	   0.0000	  -0.0078	  -0.2662	   0.1046	   3.6025	  -1.0951	   0.0377	
  -2.5000	 148.0000	   5.0000	  -0.0543	   3.2174	   0.1087	   0.2238	   0.0683	   0.2342	   0.0373	   0.0114	   0.0590	   0.0316	   0.0034	  -0.0000	   0.0109	  -0.3396	   0.8585	   3.8381	  28.9806	   0.0390	
   0.0000	 148.0000	   5.0000	   0.0000	   3.2174	   0.1087	   0.2232	   0.0672	   0.2330	   0.0372	   0.0112	   0.0582	   0.0310	   0.0033	  -0.0001	   0.0352	  -0.4197	   0.3080	   3.8541	  14.6259	   0.0388	
   2.5000	 148.0000	   5.0000	   0.0543	   3.2174	   0.1087	   0.2231	   0.0675	   0.2329	   0.0372	   0.0112	   0.0568	   0.0299	   0.0031	  -0.0000	   0.0058	  -0.4399	  -0.3110	   3.9942	  -5.6825	   0.0388	
   5.0000	 148.0000	   5.0000	   0.1087	   3.2174	   0.1087	   0.2214	   0.0675	   0.2310	   0.0369	   0.0112	   0.0554	   0.0298	   0.0030	   0.0001	  -0.0610	  -0.4181	  -0.4000	   3.6955	 -22.3358	   0.0385	
   7.5000	 148.0000	   5.0000	   0.1630	   3.2174	   0.1087	   0.2065	   0.0617	   0.2152	   0.0344	   0.0103	   0.0533	   0.0304	   0.0028	   0.0001	  -0.0728	  -0.4199	   1.7222	   0.6887	  32.0281	   0.0359	
  10.0000	 148.0000	   5.0000	   0.2174	   3.2174	   0.1087	   0.1892	   0.0578	   0.1979	   0.0315	   0.0096	   0.0507	   0.0334	   0.0028	   0.0001	  -0.0314	  -0.5775	   4.2438	  -4.7045	 189.2995	   0.0330	
  12.5000	 148.0000	   5.0000	   0.2717	   3.2174	   0.1087	   0.1687	   0.0590	   0.1787	   0.0281	   0.0098	   0.0476	   0.0331	   0.0025	   0.0001	  -0.0559	  -0.8407	   6.1507	 -12.1323	 220.4479	   0.0298	
  15.0000	 148.0000	   5.0000	   0.3261	   3.2174	   0.1087	   0.1349	   0.0645	   0.1493	   0.0225	   0.0107	   0.0436	   0.0300	   0.0021	   0.0001	  -0.0810	  -0.7586	   5.2241	  -4.7736	 151.4224	   0.0249	
  17.5000	 148.0000	   5.0000	   0.3804	   3.2174	   0.1087	   0.0968	   0.0505	   0.1078	   0.0161	   0.0084	   0.0369	   0.0244	   0.0015	   0.0002	  -0.1769	  -0.9106	   3.5468	   4.6822	  79.8919	   0.0180	
  20.0000	 148.0000	   5.0000	   0.4348	   3.2174	   0.1087	   0.0577	   0.0027	   0.0576	   0.0096	   0.0004	   0.0243	   0.0169	   0.0007	   0.0001	  -0.1643	  -1.8458	  -0.7624	   9.2348	 -32.8191	   0.0096	
  22.5000	 148.0000	   5.0000	   0.4891	   3.2174	   0.1087	   0.0173	  -0.0100	   0.0199	   0.0029	  -0.0017	   0.0061	   0.0075	   0.0001	   0.0000	  -0.0478	  -1.3589	  -0.4840	   7.4714	 -10.1933	   0.0033	
  25.0000	 148.0000	   5.0000	   0.5435	   3.2174	   0.1087	  -0.0022	   0.0012	  -0.0025	  -0.0004	   0.0002	  -0.0007	  -0.0009	  -0.0000	  -0.0000	   0.0070	   0.1685	   0.0556	  -0.8475	   1.3932	  -0.0004	
  27.5000	 148.0000	   5.0000	   0.5978	   3.2174	   0.1087	   0.0001	  -0.0001	   0.0002	   0.0000	  -0.0000	   0.0001	   0.0001	   0.0000	  -0.0000	   0.0001	  -0.0072	   0.0597	   0.2341	   2.2427	   0.0000	
  30.0000	 148.0000	   5.0000	   0.6522	   3.2174	   0.1087	  -0.0000	  -0.0000	  -0.0000	  -0.0000	  -0.0000	   0.0000	   0.0000	   0.0000	  -0.0000	   0.0003	   0.0038	   0.0278	   0.0829	   1.0508	  -0.0000	
  32.5000	 148.0000	   5.0000	   0.7065	   3.2174	   0.1087	  -0.0000	  -0.0000	  -0.0000	  -0.0000	  -0.0000	  -0.0000	   0.0000	   0.0000	  -0.0000	   0.0002	   0.0032	   0.0183	   0.0558	   0.7107	  -0.0000	
  35.0000	 148.0000	   5.0000	   0.7609	   3.2174	   0.1087	  -0.0000	  -0.0000	  -0.0000	  -0.0000	  -0.0000	  -0.0000	   0.0000	   0.0000	  -0.0000	   0.0001	   0.0020	   0.0143	   0.0463	   0.5596	  -0.0000	
  37.5000	 148.0000	   5.0000	   0.8152	   3.2174	   0.1087	  -0.0000	  -0.0000	  -0.0000	  -0.0000	  -0.0000	  -0.0000	   0.0000	   0.0000	  -0.0000	   0.0001	   0.0017	   0.0112	   0.0360	   0.4412	  -0.0000	
  40.0000	 148.0000	   5.0000	   0.8696	   3.2174	   0.1087	  -0.0000	  -0.0000	  -0.0000	  -0.0000	  -0.0000	  -0.0000	   0.0000	   0.0000	  -0.0000	   0.0001	   0.0013	   0.0092	   0.0295	   0.3644	  -0.0000	
  42.5000	 148.0000	   5.0000	   0.9239	   3.2174	   0.1087	  -0.0000	  -0.0000	  -0.0000	  -0.0000	  -0.0000	  -0.0000	   0.0000	   0.0000	  -0.0000	   0.0001	   0.0011	   0.0078	   0.0246	   0.3085	  -0.0000	
  45.0000	 148.0000	   5.0000	   0.9783	   3.2174	   0.1087	  -0.0000	  -0.0000	  -0.0000	  -0.0000	  -0.0000	  -0.0000	   0.0000	   0.0000	  -0.0000	   0.0001	   0.0009	   0.0066	   0.0207	   0.2653	  -0.0000	
  47.5000	 148.0000	   5.0000	   1.0326	   3.2174	   0.1087	  -0.0000	  -0.0000	  -0.0000	  -0.0000	  -0.0000	  -0.0000	   0.0000	   0.0000	  -0.0000	   0.0001	   0.0008	   0.0058	   0.0178	   0.2318	  -0.0000	
  50.0000	 148.0000	   5.0000	   1.0870	   3.2174	   0.1087	  -0.0000	  -0.0000	  -0.0000	  -0.0000	  -0.0000	  -0.0000	   0.0000	   0.0000	  -0.0000	   0.0000	   0.0007	   0.0051	   0.0154	   0.2056	  -0.0000	
  52.5000	 148.0000	   5.0000	   1.1413	   3.2174	   0.1087	  -0.0000	  -0.0000	  -0.0000	  -0.0000	  -0.0000	  -0.0000	   0.0000	   0.0000	  -0.0000	   0.0000	   0.0006	   0.0046	   0.0136	   0.1843	  -0.0000	
  55.0000	 148.0000	   5.0000	   1.1957	   3.2174	   0.1087	   0.0000	  -0.0000	  -0.0000	   0.0000	  -0.0000	  -0.0000	   0.0000	   0.0000	  -0.0000	   0.0000	   0.0006	   0.0042	   0.0120	   0.1671	  -0.0000	
  57.5000	 148.0000	   5.0000	   1.2500	   3.2174	   0.1087	   0.0000	  -0.0000	  -0.0000	   0.0000	  -0.0000	  -0.0000	   0.0000	   0.0000	  -0.0000	   0.0000	   0.0005	   0.0038	   0.0107	   0.1525	  -0.0000	
  60.0000	 148.0000	   5.0000	   1.3043	   3.2174	   0.1087	   0.0000	  -0.0000	  -0.0000	   0.0000	  -0.0000	  -0.0000	   0.0000	   0.0000	  -0.0000	   0.0000	   0.0005	   0.0035	   0.0097	   0.1408	  -0.0000	
  62.5000	 148.0000	   5.0000	   1.3587	   3.2174	   0.1087	   0.0000	  -0.0000	  -0.0000	   0.0000	  -0.0000	  -0.0000	   0.0000	   0.0000	  -0.0000	   0.0000	   0.0004	   0.0033	   0.0089	   0.1313	  -0.0000	
  65.0000	 148.0000	   5.0000	   1.4130	   3.2174	   0.1087	   0.0000	  -0.0000	  -0.0000	   0.0000	  -0.0000	  -0.0000	   0.0000	  -0.0000	  -0.0000	   0.0000	   0.0004	   0.0031	   0.0082	   0.1237	  -0.0000	
  67.5000	 148.0000	   5.0000	   1.4674	   3.2174	   0.1087	   0.0000	  -0.0000	  -0.0000	   0.0000	  -0.0000	  -0.0000	   0.0000	  -0.0000	  -0.0000	   0.0000	   0.0004	   0.0029	   0.0076	   0.1180	  -0.0000	
  70.0000	 148.0000	   5.0000	   1.5217	   3.2174	   0.1087	   0.0000	  -0.0000	  -0.0000	   0.0000	  -0.0000	  -0.0000	   0.0000	  -0.0000	  -0.0000	   0.0000	   0.0003	   0.0028	   0.0071	   0.1137	  -0.0000	
  72.5000	 148.0000	   5.0000	   1.5761	   3.2174	   0.1087	   0.0000	  -0.0000	  -0.0000	   0.0000	  -0.0000	  -0.0000	   0.0000	  -0.0000	  -0.0000	   0.0000	   0.0003	   0.0028	   0.0069	   0.1146	  -0.0000	
  75.0000	 148.0000	   5.0000	   1.6304	   3.2174	   0.1087	   0.0000	  -0.0000	  -0.0000	   0.0000	  -0.0000	  -0.0000	   0.0000	  -0.0000	  -0.0000	   0.0000	   0.0004	   0.0030	   0.0070	   0.1211	  -0.0000	
  77.5000	 148.0000	   5.0000	   1.6848	   3.2174	   0.1087	   0.0000	  -0.0000	  -0.0000	   0.0000	  -0.0000	  -0.0000	   0.0000	   0.0000	  -0.0000	   0.0000	   0.0004	   0.0026	   0.0079	   0.1039	  -0.0000	
  80.0000	 148.0000	   5.0000	   1.7391	   3.2174	   0.1087	   0.0001	   0.0000	  -0.0002	   0.0000	   0.0000	  -0.0000	  -0.0000	  -0.0000	  -0.0000	   0.0002	   0.0003	   0.0085	   0.0011	   0.3644	  -0.0000	
 -80.0000	 148.0000	   7.5000	  -1.7391	   3.2174	   0.1630	  -0.0000	  -0.0000	   0.0000	  -0.0000	  -0.0000	   0.0000	   0.0000	   0.0000	   0.0000	  -0.0000	  -0.0000	  -0.0007	  -0.0008	  -0.0267	   0.0000	
 -77.5000	 148.0000	   7.5000	  -1.6848	   3.2174	   0.1630	   0.0000	   0.0000	  -0.0000	   0.0000	   0.0000	  -0.0000	  -0.0000	  -0.0000	  -0.0000	  -0.0000	  -0.0000	  -0.0002	  -0.0000	  -0.0090	  -0.0000	
 -75.0000	 148.0000	   7.5000	  -1.6304	   3.2174	   0.1630	  -0.0000	   0.0000	   0.0000	  -0.0000	   0.0000	   0.0000	  -0.0000	   0.0000	   0.0000	  -0.0000	  -0.0000	  -0.0002	  -0.0000	  -0.0091	   0.0000	
 -72.5000	 148.0000	   7.5000	  -1.5761	   3.2174	   0.1630	  -0.0000	   0.0000	   0.0000	  -0.0000	   0.0000	   0.0000	  -0.0000	   0.0000	   0.0000	  -0.0000	  -0.0000	  -0.0003	  -0.0000	  -0.0111	   0.0000	
 -70.0000	 148.0000	   7.5000	  -1.5217	   3.2174	   0.1630	  -0.0000	   0.0000	   0.0000	  -0.0000	   0.0000	   0.0000	  -0.0000	   0.0000	   0.0000	  -0.0000	  -0.0000	  -0.0003	  -0.0000	  -0.0119	   0.0000	
 -67.5000	 148.0000	   7.5000	  -1.4674	   3.2174	   0.1630	  -0.0000	   0.0000	   0.0000	  -0.0000	   0.0000	   0.0000	  -0.0000	   0.0000	   0.0000	  -0.0000	  -0.0000	  -0.0003	   0.0000	  -0.0113	   0.0000	
 -65.0000	 148.0000	   7.5000	  -1.4130	   3.2174	   0.1630	  -0.0000	   0.0000	   0.0000	  -0.0000	   0.0000	   0.0000	  -0.0000	   0.0000	   0.0000	  -0.0000	  -0.0000	  -0.0002	   0.0000	  -0.0100	   0.0000	
 -62.5000	 148.0000	   7.5000	  -1.3587	   3.2174	   0.1630	  -0.0000	   0.0000	   0.0000	  -0.0000	   0.0000	   0.0000	  -0.0000	   0.0000	   0.0000	  -0.0000	  -0.0000	  -0.0003	   0.0001	  -0.0116	   0.0000	
 -60.0000	 148.0000	   7.5000	  -1.3043	   3.2174	   0.1630	  -0.0000	   0.0000	   0.0000	  -0.0000	   0.0000	   0.0000	  -0.0000	   0.0000	   0.0000	  -0.0000	  -0.0000	  -0.0004	   0.0002	  -0.0145	   0.0000	