Variables = "x [mm]"	"y [mm]"	"z [mm]"	"x/B"	"y/B"	"z/B"	"C*"	"C*std"	
Zone T = "Trees_West_y=-85mm_Tec" I=17 J=25 F=POINT
 -20.0000	 -85.0000	   5.0000	  -0.4348	  -1.8478	   0.1087	 141.6600	  61.0900	
 -17.5000	 -85.0000	   5.0000	  -0.3804	  -1.8478	   0.1087	 154.9400	  74.8725	
 -15.0000	 -85.0000	   5.0000	  -0.3261	  -1.8478	   0.1087	 168.2200	  88.6550	
 -12.5000	 -85.0000	   5.0000	  -0.2717	  -1.8478	   0.1087	 181.5000	 102.4375	
 -10.0000	 -85.0000	   5.0000	  -0.2174	  -1.8478	   0.1087	 194.7800	 116.2200	
  -7.5000	 -85.0000	   5.0000	  -0.1630	  -1.8478	   0.1087	 189.5800	 143.0400	
  -5.0000	 -85.0000	   5.0000	  -0.1087	  -1.8478	   0.1087	 184.3800	 169.8600	
  -2.5000	 -85.0000	   5.0000	  -0.0543	  -1.8478	   0.1087	 179.1800	 196.6800	
   0.0000	 -85.0000	   5.0000	   0.0000	  -1.8478	   0.1087	 173.9800	 223.5000	
   2.5000	 -85.0000	   5.0000	   0.0543	  -1.8478	   0.1087	 132.4350	 170.5725	
   5.0000	 -85.0000	   5.0000	   0.1087	  -1.8478	   0.1087	  90.8900	 117.6450	
   7.5000	 -85.0000	   5.0000	   0.1630	  -1.8478	   0.1087	  49.3450	  64.7175	
  10.0000	 -85.0000	   5.0000	   0.2174	  -1.8478	   0.1087	   7.8000	  11.7900	
  12.5000	 -85.0000	   5.0000	   0.2717	  -1.8478	   0.1087	   7.1350	  10.5225	
  15.0000	 -85.0000	   5.0000	   0.3261	  -1.8478	   0.1087	   6.4700	   9.2550	
  17.5000	 -85.0000	   5.0000	   0.3804	  -1.8478	   0.1087	   5.8050	   7.9875	
  20.0000	 -85.0000	   5.0000	   0.4348	  -1.8478	   0.1087	   5.1400	   6.7200	
 -20.0000	 -85.0000	   7.5000	  -0.4348	  -1.8478	   0.1630	 132.7175	  59.2500	
 -17.5000	 -85.0000	   7.5000	  -0.3804	  -1.8478	   0.1630	 139.5825	  69.5056	
 -15.0000	 -85.0000	   7.5000	  -0.3261	  -1.8478	   0.1630	 146.4475	  79.7613	
 -12.5000	 -85.0000	   7.5000	  -0.2717	  -1.8478	   0.1630	 153.3125	  90.0169	
 -10.0000	 -85.0000	   7.5000	  -0.2174	  -1.8478	   0.1630	 157.8840	 101.6468	
  -7.5000	 -85.0000	   7.5000	  -0.1630	  -1.8478	   0.1630	 153.6638	 118.5450	
  -5.0000	 -85.0000	   7.5000	  -0.1087	  -1.8478	   0.1630	 147.1500	 136.8175	
  -2.5000	 -85.0000	   7.5000	  -0.0543	  -1.8478	   0.1630	 140.6362	 155.0900	
   0.0000	 -85.0000	   7.5000	   0.0000	  -1.8478	   0.1630	 129.8191	 163.2780	
   2.5000	 -85.0000	   7.5000	   0.0543	  -1.8478	   0.1630	 102.5056	 132.8087	
   5.0000	 -85.0000	   7.5000	   0.1087	  -1.8478	   0.1630	  70.8888	  92.2550	
   7.5000	 -85.0000	   7.5000	   0.1630	  -1.8478	   0.1630	  39.2719	  51.7013	
  10.0000	 -85.0000	   7.5000	   0.2174	  -1.8478	   0.1630	  12.9655	  17.9005	
  12.5000	 -85.0000	   7.5000	   0.2717	  -1.8478	   0.1630	   7.0163	   9.9862	
  15.0000	 -85.0000	   7.5000	   0.3261	  -1.8478	   0.1630	   6.3775	   8.8250	
  17.5000	 -85.0000	   7.5000	   0.3804	  -1.8478	   0.1630	   5.7387	   7.6638	
  20.0000	 -85.0000	   7.5000	   0.4348	  -1.8478	   0.1630	   5.1000	   6.5025	
 -20.0000	 -85.0000	  10.0000	  -0.4348	  -1.8478	   0.2174	 123.7750	  57.4100	
 -17.5000	 -85.0000	  10.0000	  -0.3804	  -1.8478	   0.2174	 124.2250	  64.1388	
 -15.0000	 -85.0000	  10.0000	  -0.3261	  -1.8478	   0.2174	 124.6750	  70.8675	
 -12.5000	 -85.0000	  10.0000	  -0.2717	  -1.8478	   0.2174	 125.1250	  77.5962	
 -10.0000	 -85.0000	  10.0000	  -0.2174	  -1.8478	   0.2174	 123.7356	  84.9908	
  -7.5000	 -85.0000	  10.0000	  -0.1630	  -1.8478	   0.2174	 117.7475	  94.0500	
  -5.0000	 -85.0000	  10.0000	  -0.1087	  -1.8478	   0.2174	 109.9200	 103.7750	
  -2.5000	 -85.0000	  10.0000	  -0.0543	  -1.8478	   0.2174	 102.0925	 113.5000	
   0.0000	 -85.0000	  10.0000	   0.0000	  -1.8478	   0.2174	  91.1847	 114.8017	
   2.5000	 -85.0000	  10.0000	   0.0543	  -1.8478	   0.2174	  72.5762	  95.0450	
   5.0000	 -85.0000	  10.0000	   0.1087	  -1.8478	   0.2174	  50.8875	  66.8650	
   7.5000	 -85.0000	  10.0000	   0.1630	  -1.8478	   0.2174	  29.1987	  38.6850	
  10.0000	 -85.0000	  10.0000	   0.2174	  -1.8478	   0.2174	  12.1936	  16.5328	
  12.5000	 -85.0000	  10.0000	   0.2717	  -1.8478	   0.2174	   6.8975	   9.4500	
  15.0000	 -85.0000	  10.0000	   0.3261	  -1.8478	   0.2174	   6.2850	   8.3950	
  17.5000	 -85.0000	  10.0000	   0.3804	  -1.8478	   0.2174	   5.6725	   7.3400	
  20.0000	 -85.0000	  10.0000	   0.4348	  -1.8478	   0.2174	   5.0600	   6.2850	
 -20.0000	 -85.0000	  12.5000	  -0.4348	  -1.8478	   0.2717	 114.8325	  55.5700	
 -17.5000	 -85.0000	  12.5000	  -0.3804	  -1.8478	   0.2717	 108.8675	  58.7719	
 -15.0000	 -85.0000	  12.5000	  -0.3261	  -1.8478	   0.2717	 102.9025	  61.9738	
 -12.5000	 -85.0000	  12.5000	  -0.2717	  -1.8478	   0.2717	  96.9375	  65.1756	
 -10.0000	 -85.0000	  12.5000	  -0.2174	  -1.8478	   0.2717	  90.4280	  68.0305	
  -7.5000	 -85.0000	  12.5000	  -0.1630	  -1.8478	   0.2717	  81.8312	  69.5550	
  -5.0000	 -85.0000	  12.5000	  -0.1087	  -1.8478	   0.2717	  72.6900	  70.7325	
  -2.5000	 -85.0000	  12.5000	  -0.0543	  -1.8478	   0.2717	  63.5487	  71.9100	
   0.0000	 -85.0000	  12.5000	   0.0000	  -1.8478	   0.2717	  53.9585	  70.1760	
   2.5000	 -85.0000	  12.5000	   0.0543	  -1.8478	   0.2717	  42.6469	  57.2812	
   5.0000	 -85.0000	  12.5000	   0.1087	  -1.8478	   0.2717	  30.8862	  41.4750	
   7.5000	 -85.0000	  12.5000	   0.1630	  -1.8478	   0.2717	  19.1256	  25.6687	
  10.0000	 -85.0000	  12.5000	   0.2174	  -1.8478	   0.2717	   9.2806	  12.4095	
  12.5000	 -85.0000	  12.5000	   0.2717	  -1.8478	   0.2717	   6.7788	   8.9138	
  15.0000	 -85.0000	  12.5000	   0.3261	  -1.8478	   0.2717	   6.1925	   7.9650	
  17.5000	 -85.0000	  12.5000	   0.3804	  -1.8478	   0.2717	   5.6063	   7.0162	
  20.0000	 -85.0000	  12.5000	   0.4348	  -1.8478	   0.2717	   5.0200	   6.0675	
 -20.0000	 -85.0000	  15.0000	  -0.4348	  -1.8478	   0.3261	 105.8900	  53.7300	
 -17.5000	 -85.0000	  15.0000	  -0.3804	  -1.8478	   0.3261	  95.3966	  53.8027	
 -15.0000	 -85.0000	  15.0000	  -0.3261	  -1.8478	   0.3261	  85.0367	  54.2528	
 -12.5000	 -85.0000	  15.0000	  -0.2717	  -1.8478	   0.3261	  72.8909	  54.1667	
 -10.0000	 -85.0000	  15.0000	  -0.2174	  -1.8478	   0.3261	  56.3700	  52.4300	
  -7.5000	 -85.0000	  15.0000	  -0.1630	  -1.8478	   0.3261	  51.5451	  48.5596	
  -5.0000	 -85.0000	  15.0000	  -0.1087	  -1.8478	   0.3261	  43.2278	  44.2758	
  -2.5000	 -85.0000	  15.0000	  -0.0543	  -1.8478	   0.3261	  31.3594	  36.9814	
   0.0000	 -85.0000	  15.0000	   0.0000	  -1.8478	   0.3261	  14.5500	  22.9500	
   2.5000	 -85.0000	  15.0000	   0.0543	  -1.8478	   0.3261	  17.7534	  25.6994	
   5.0000	 -85.0000	  15.0000	   0.1087	  -1.8478	   0.3261	  15.2344	  21.4278	
   7.5000	 -85.0000	  15.0000	   0.1630	  -1.8478	   0.3261	  10.7271	  14.7137	
  10.0000	 -85.0000	  15.0000	   0.2174	  -1.8478	   0.3261	   7.2200	   9.2200	
  12.5000	 -85.0000	  15.0000	   0.2717	  -1.8478	   0.3261	   6.6549	   8.3777	
  15.0000	 -85.0000	  15.0000	   0.3261	  -1.8478	   0.3261	   6.0944	   7.5344	
  17.5000	 -85.0000	  15.0000	   0.3804	  -1.8478	   0.3261	   5.5366	   6.6914	
  20.0000	 -85.0000	  15.0000	   0.4348	  -1.8478	   0.3261	   4.9800	   5.8500	
 -20.0000	 -85.0000	  17.5000	  -0.4348	  -1.8478	   0.3804	 101.3775	  51.2525	
 -17.5000	 -85.0000	  17.5000	  -0.3804	  -1.8478	   0.3804	  89.1575	  50.3581	
 -15.0000	 -85.0000	  17.5000	  -0.3261	  -1.8478	   0.3804	  76.9375	  49.4637	
 -12.5000	 -85.0000	  17.5000	  -0.2717	  -1.8478	   0.3804	  64.7175	  48.5694	
 -10.0000	 -85.0000	  17.5000	  -0.2174	  -1.8478	   0.3804	  52.9370	  46.6805	
  -7.5000	 -85.0000	  17.5000	  -0.1630	  -1.8478	   0.3804	  42.8413	  40.9794	
  -5.0000	 -85.0000	  17.5000	  -0.1087	  -1.8478	   0.3804	  33.1850	  34.2837	
  -2.5000	 -85.0000	  17.5000	  -0.0543	  -1.8478	   0.3804	  23.5288	  27.5881	
   0.0000	 -85.0000	  17.5000	   0.0000	  -1.8478	   0.3804	  15.2350	  21.5128	
   2.5000	 -85.0000	  17.5000	   0.0543	  -1.8478	   0.3804	  12.1644	  17.8150	
   5.0000	 -85.0000	  17.5000	   0.1087	  -1.8478	   0.3804	  10.4563	  14.7375	
   7.5000	 -85.0000	  17.5000	   0.1630	  -1.8478	   0.3804	   8.7481	  11.6600	
  10.0000	 -85.0000	  17.5000	   0.2174	  -1.8478	   0.3804	   7.2422	   8.9832	
  12.5000	 -85.0000	  17.5000	   0.2717	  -1.8478	   0.3804	   6.5113	   7.8425	
  15.0000	 -85.0000	  17.5000	   0.3261	  -1.8478	   0.3804	   5.9825	   7.1025	
  17.5000	 -85.0000	  17.5000	   0.3804	  -1.8478	   0.3804	   5.4538	   6.3625	
  20.0000	 -85.0000	  17.5000	   0.4348	  -1.8478	   0.3804	   4.9250	   5.6225	
 -20.0000	 -85.0000	  20.0000	  -0.4348	  -1.8478	   0.4348	  96.8650	  48.7750	
 -17.5000	 -85.0000	  20.0000	  -0.3804	  -1.8478	   0.4348	  84.8050	  47.3113	
 -15.0000	 -85.0000	  20.0000	  -0.3261	  -1.8478	   0.4348	  72.7450	  45.8475	
 -12.5000	 -85.0000	  20.0000	  -0.2717	  -1.8478	   0.4348	  60.6850	  44.3837	
 -10.0000	 -85.0000	  20.0000	  -0.2174	  -1.8478	   0.4348	  49.3367	  41.9072	
  -7.5000	 -85.0000	  20.0000	  -0.1630	  -1.8478	   0.4348	  39.7675	  36.8987	
  -5.0000	 -85.0000	  20.0000	  -0.1087	  -1.8478	   0.4348	  30.9100	  30.8775	
  -2.5000	 -85.0000	  20.0000	  -0.0543	  -1.8478	   0.4348	  22.0525	  24.8562	
   0.0000	 -85.0000	  20.0000	   0.0000	  -1.8478	   0.4348	  14.8114	  19.5681	
   2.5000	 -85.0000	  20.0000	   0.0543	  -1.8478	   0.4348	  11.6113	  16.1125	
   5.0000	 -85.0000	  20.0000	   0.1087	  -1.8478	   0.4348	  10.0275	  13.3900	
   7.5000	 -85.0000	  20.0000	   0.1630	  -1.8478	   0.4348	   8.4437	  10.6675	
  10.0000	 -85.0000	  20.0000	   0.2174	  -1.8478	   0.4348	   7.1014	   8.4083	
  12.5000	 -85.0000	  20.0000	   0.2717	  -1.8478	   0.4348	   6.3625	   7.3075	
  15.0000	 -85.0000	  20.0000	   0.3261	  -1.8478	   0.4348	   5.8650	   6.6700	
  17.5000	 -85.0000	  20.0000	   0.3804	  -1.8478	   0.4348	   5.3675	   6.0325	
  20.0000	 -85.0000	  20.0000	   0.4348	  -1.8478	   0.4348	   4.8700	   5.3950	
 -20.0000	 -85.0000	  22.5000	  -0.4348	  -1.8478	   0.4891	  92.3525	  46.2975	
 -17.5000	 -85.0000	  22.5000	  -0.3804	  -1.8478	   0.4891	  80.4525	  44.2644	
 -15.0000	 -85.0000	  22.5000	  -0.3261	  -1.8478	   0.4891	  68.5525	  42.2313	
 -12.5000	 -85.0000	  22.5000	  -0.2717	  -1.8478	   0.4891	  56.6525	  40.1981	
 -10.0000	 -85.0000	  22.5000	  -0.2174	  -1.8478	   0.4891	  45.4110	  37.5969	
  -7.5000	 -85.0000	  22.5000	  -0.1630	  -1.8478	   0.4891	  36.6937	  32.8181	
  -5.0000	 -85.0000	  22.5000	  -0.1087	  -1.8478	   0.4891	  28.6350	  27.4712	
  -2.5000	 -85.0000	  22.5000	  -0.0543	  -1.8478	   0.4891	  20.5763	  22.1244	
   0.0000	 -85.0000	  22.5000	   0.0000	  -1.8478	   0.4891	  13.6488	  17.2883	
   2.5000	 -85.0000	  22.5000	   0.0543	  -1.8478	   0.4891	  11.0581	  14.4100	
   5.0000	 -85.0000	  22.5000	   0.1087	  -1.8478	   0.4891	   9.5987	  12.0425	
   7.5000	 -85.0000	  22.5000	   0.1630	  -1.8478	   0.4891	   8.1394	   9.6750	
  10.0000	 -85.0000	  22.5000	   0.2174	  -1.8478	   0.4891	   6.8502	   7.6216	
  12.5000	 -85.0000	  22.5000	   0.2717	  -1.8478	   0.4891	   6.2137	   6.7725	
  15.0000	 -85.0000	  22.5000	   0.3261	  -1.8478	   0.4891	   5.7475	   6.2375	
  17.5000	 -85.0000	  22.5000	   0.3804	  -1.8478	   0.4891	   5.2812	   5.7025	
  20.0000	 -85.0000	  22.5000	   0.4348	  -1.8478	   0.4891	   4.8150	   5.1675	
 -20.0000	 -85.0000	  25.0000	  -0.4348	  -1.8478	   0.5435	  87.8400	  43.8200	
 -17.5000	 -85.0000	  25.0000	  -0.3804	  -1.8478	   0.5435	  76.4048	  41.5667	
 -15.0000	 -85.0000	  25.0000	  -0.3261	  -1.8478	   0.5435	  64.7814	  39.1519	
 -12.5000	 -85.0000	  25.0000	  -0.2717	  -1.8478	   0.5435	  52.9653	  36.4918	
 -10.0000	 -85.0000	  25.0000	  -0.2174	  -1.8478	   0.5435	  40.8800	  33.4100	
  -7.5000	 -85.0000	  25.0000	  -0.1630	  -1.8478	   0.5435	  33.9324	  29.2484	
  -5.0000	 -85.0000	  25.0000	  -0.1087	  -1.8478	   0.5435	  26.6961	  24.6839	
  -2.5000	 -85.0000	  25.0000	  -0.0543	  -1.8478	   0.5435	  19.3061	  19.8365	
   0.0000	 -85.0000	  25.0000	   0.0000	  -1.8478	   0.5435	  11.8400	  14.7200	
   2.5000	 -85.0000	  25.0000	   0.0543	  -1.8478	   0.5435	  10.6326	  13.0439	
   5.0000	 -85.0000	  25.0000	   0.1087	  -1.8478	   0.5435	   9.3025	  11.0350	
   7.5000	 -85.0000	  25.0000	   0.1630	  -1.8478	   0.5435	   7.9118	   8.8706	
  10.0000	 -85.0000	  25.0000	   0.2174	  -1.8478	   0.5435	   6.5000	   6.6700	
  12.5000	 -85.0000	  25.0000	   0.2717	  -1.8478	   0.5435	   6.1093	   6.3331	
  15.0000	 -85.0000	  25.0000	   0.3261	  -1.8478	   0.5435	   5.6781	   5.9050	
  17.5000	 -85.0000	  25.0000	   0.3804	  -1.8478	   0.5435	   5.2249	   5.4312	
  20.0000	 -85.0000	  25.0000	   0.4348	  -1.8478	   0.5435	   4.7600	   4.9400	
 -20.0000	 -85.0000	  27.5000	  -0.4348	  -1.8478	   0.5978	  84.9875	  43.0000	
 -17.5000	 -85.0000	  27.5000	  -0.3804	  -1.8478	   0.5978	  73.5256	  40.2075	
 -15.0000	 -85.0000	  27.5000	  -0.3261	  -1.8478	   0.5978	  62.0637	  37.4150	
 -12.5000	 -85.0000	  27.5000	  -0.2717	  -1.8478	   0.5978	  50.6019	  34.6225	
 -10.0000	 -85.0000	  27.5000	  -0.2174	  -1.8478	   0.5978	  39.9441	  31.5899	
  -7.5000	 -85.0000	  27.5000	  -0.1630	  -1.8478	   0.5978	  32.3687	  27.6369	
  -5.0000	 -85.0000	  27.5000	  -0.1087	  -1.8478	   0.5978	  25.5975	  23.4438	
  -2.5000	 -85.0000	  27.5000	  -0.0543	  -1.8478	   0.5978	  18.8263	  19.2506	
   0.0000	 -85.0000	  27.5000	   0.0000	  -1.8478	   0.5978	  12.9829	  15.4180	
   2.5000	 -85.0000	  27.5000	   0.0543	  -1.8478	   0.5978	  10.6962	  12.9675	
   5.0000	 -85.0000	  27.5000	   0.1087	  -1.8478	   0.5978	   9.3375	  10.8775	
   7.5000	 -85.0000	  27.5000	   0.1630	  -1.8478	   0.5978	   7.9787	   8.7875	
  10.0000	 -85.0000	  27.5000	   0.2174	  -1.8478	   0.5978	   6.7765	   6.9808	
  12.5000	 -85.0000	  27.5000	   0.2717	  -1.8478	   0.5978	   6.1744	   6.2600	
  15.0000	 -85.0000	  27.5000	   0.3261	  -1.8478	   0.5978	   5.7287	   5.8225	
  17.5000	 -85.0000	  27.5000	   0.3804	  -1.8478	   0.5978	   5.2831	   5.3850	
  20.0000	 -85.0000	  27.5000	   0.4348	  -1.8478	   0.5978	   4.8375	   4.9475	
 -20.0000	 -85.0000	  30.0000	  -0.4348	  -1.8478	   0.6522	  82.1350	  42.1800	
 -17.5000	 -85.0000	  30.0000	  -0.3804	  -1.8478	   0.6522	  70.9513	  39.1975	
 -15.0000	 -85.0000	  30.0000	  -0.3261	  -1.8478	   0.6522	  59.7675	  36.2150	
 -12.5000	 -85.0000	  30.0000	  -0.2717	  -1.8478	   0.6522	  48.5838	  33.2325	
 -10.0000	 -85.0000	  30.0000	  -0.2174	  -1.8478	   0.6522	  38.4892	  30.0875	
  -7.5000	 -85.0000	  30.0000	  -0.1630	  -1.8478	   0.6522	  31.1175	  26.5362	
  -5.0000	 -85.0000	  30.0000	  -0.1087	  -1.8478	   0.6522	  24.8350	  22.8225	
  -2.5000	 -85.0000	  30.0000	  -0.0543	  -1.8478	   0.6522	  18.5525	  19.1087	
   0.0000	 -85.0000	  30.0000	   0.0000	  -1.8478	   0.6522	  13.3589	  15.7386	
   2.5000	 -85.0000	  30.0000	   0.0543	  -1.8478	   0.6522	  10.8875	  13.2275	
   5.0000	 -85.0000	  30.0000	   0.1087	  -1.8478	   0.6522	   9.5050	  11.0600	
   7.5000	 -85.0000	  30.0000	   0.1630	  -1.8478	   0.6522	   8.1225	   8.8925	
  10.0000	 -85.0000	  30.0000	   0.2174	  -1.8478	   0.6522	   6.9458	   7.1083	
  12.5000	 -85.0000	  30.0000	   0.2717	  -1.8478	   0.6522	   6.2837	   6.2825	
  15.0000	 -85.0000	  30.0000	   0.3261	  -1.8478	   0.6522	   5.8275	   5.8400	
  17.5000	 -85.0000	  30.0000	   0.3804	  -1.8478	   0.6522	   5.3712	   5.3975	
  20.0000	 -85.0000	  30.0000	   0.4348	  -1.8478	   0.6522	   4.9150	   4.9550	
 -20.0000	 -85.0000	  32.5000	  -0.4348	  -1.8478	   0.7065	  79.2825	  41.3600	
 -17.5000	 -85.0000	  32.5000	  -0.3804	  -1.8478	   0.7065	  68.3769	  38.1875	
 -15.0000	 -85.0000	  32.5000	  -0.3261	  -1.8478	   0.7065	  57.4712	  35.0150	
 -12.5000	 -85.0000	  32.5000	  -0.2717	  -1.8478	   0.7065	  46.5656	  31.8425	
 -10.0000	 -85.0000	  32.5000	  -0.2174	  -1.8478	   0.7065	  36.5363	  28.6594	
  -7.5000	 -85.0000	  32.5000	  -0.1630	  -1.8478	   0.7065	  29.8662	  25.4356	
  -5.0000	 -85.0000	  32.5000	  -0.1087	  -1.8478	   0.7065	  24.0725	  22.2012	
  -2.5000	 -85.0000	  32.5000	  -0.0543	  -1.8478	   0.7065	  18.2787	  18.9669	
   0.0000	 -85.0000	  32.5000	   0.0000	  -1.8478	   0.7065	  13.2371	  15.9021	
   2.5000	 -85.0000	  32.5000	   0.0543	  -1.8478	   0.7065	  11.0787	  13.4875	
   5.0000	 -85.0000	  32.5000	   0.1087	  -1.8478	   0.7065	   9.6725	  11.2425	
   7.5000	 -85.0000	  32.5000	   0.1630	  -1.8478	   0.7065	   8.2662	   8.9975	
  10.0000	 -85.0000	  32.5000	   0.2174	  -1.8478	   0.7065	   7.0210	   7.0606	
  12.5000	 -85.0000	  32.5000	   0.2717	  -1.8478	   0.7065	   6.3931	   6.3050	
  15.0000	 -85.0000	  32.5000	   0.3261	  -1.8478	   0.7065	   5.9262	   5.8575	
  17.5000	 -85.0000	  32.5000	   0.3804	  -1.8478	   0.7065	   5.4594	   5.4100	
  20.0000	 -85.0000	  32.5000	   0.4348	  -1.8478	   0.7065	   4.9925	   4.9625	
 -20.0000	 -85.0000	  35.0000	  -0.4348	  -1.8478	   0.7609	  76.4300	  40.5400	
 -17.5000	 -85.0000	  35.0000	  -0.3804	  -1.8478	   0.7609	  65.7104	  37.2810	
 -15.0000	 -85.0000	  35.0000	  -0.3261	  -1.8478	   0.7609	  55.0522	  33.9506	
 -12.5000	 -85.0000	  35.0000	  -0.2717	  -1.8478	   0.7609	  44.4502	  30.5581	
 -10.0000	 -85.0000	  35.0000	  -0.2174	  -1.8478	   0.7609	  33.9200	  27.0900	
  -7.5000	 -85.0000	  35.0000	  -0.1630	  -1.8478	   0.7609	  28.4979	  24.3378	
  -5.0000	 -85.0000	  35.0000	  -0.1087	  -1.8478	   0.7609	  23.1358	  21.4489	
  -2.5000	 -85.0000	  35.0000	  -0.0543	  -1.8478	   0.7609	  17.8534	  18.6199	
   0.0000	 -85.0000	  35.0000	   0.0000	  -1.8478	   0.7609	  12.7000	  16.0700	
   2.5000	 -85.0000	  35.0000	   0.0543	  -1.8478	   0.7609	  11.1404	  13.5153	
   5.0000	 -85.0000	  35.0000	   0.1087	  -1.8478	   0.7609	   9.7228	  11.2236	
   7.5000	 -85.0000	  35.0000	   0.1630	  -1.8478	   0.7609	   8.3588	   9.0240	
  10.0000	 -85.0000	  35.0000	   0.2174	  -1.8478	   0.7609	   6.9800	   6.7800	
  12.5000	 -85.0000	  35.0000	   0.2717	  -1.8478	   0.7609	   6.5056	   6.3381	
  15.0000	 -85.0000	  35.0000	   0.3261	  -1.8478	   0.7609	   6.0486	   5.9047	
  17.5000	 -85.0000	  35.0000	   0.3804	  -1.8478	   0.7609	   5.5808	   5.4578	
  20.0000	 -85.0000	  35.0000	   0.4348	  -1.8478	   0.7609	   5.0700	   4.9700	
 -20.0000	 -85.0000	  37.5000	  -0.4348	  -1.8478	   0.8152	  73.0550	  40.3175	
 -17.5000	 -85.0000	  37.5000	  -0.3804	  -1.8478	   0.8152	  62.6906	  36.7713	
 -15.0000	 -85.0000	  37.5000	  -0.3261	  -1.8478	   0.8152	  52.3263	  33.2250	
 -12.5000	 -85.0000	  37.5000	  -0.2717	  -1.8478	   0.8152	  41.9619	  29.6788	
 -10.0000	 -85.0000	  37.5000	  -0.2174	  -1.8478	   0.8152	  32.5314	  26.2464	
  -7.5000	 -85.0000	  37.5000	  -0.1630	  -1.8478	   0.8152	  26.6806	  23.2506	
  -5.0000	 -85.0000	  37.5000	  -0.1087	  -1.8478	   0.8152	  21.7638	  20.3688	
  -2.5000	 -85.0000	  37.5000	  -0.0543	  -1.8478	   0.8152	  16.8469	  17.4869	
   0.0000	 -85.0000	  37.5000	   0.0000	  -1.8478	   0.8152	  12.5629	  14.7644	
   2.5000	 -85.0000	  37.5000	   0.0543	  -1.8478	   0.8152	  10.7050	  12.6531	
   5.0000	 -85.0000	  37.5000	   0.1087	  -1.8478	   0.8152	   9.4800	  10.7012	
   7.5000	 -85.0000	  37.5000	   0.1630	  -1.8478	   0.8152	   8.2550	   8.7494	
  10.0000	 -85.0000	  37.5000	   0.2174	  -1.8478	   0.8152	   7.1714	   7.0660	
  12.5000	 -85.0000	  37.5000	   0.2717	  -1.8478	   0.8152	   6.6300	   6.4119	
  15.0000	 -85.0000	  37.5000	   0.3261	  -1.8478	   0.8152	   6.2300	   6.0263	
  17.5000	 -85.0000	  37.5000	   0.3804	  -1.8478	   0.8152	   5.8300	   5.6406	
  20.0000	 -85.0000	  37.5000	   0.4348	  -1.8478	   0.8152	   5.4300	   5.2550	
 -20.0000	 -85.0000	  40.0000	  -0.4348	  -1.8478	   0.8696	  69.6800	  40.0950	
 -17.5000	 -85.0000	  40.0000	  -0.3804	  -1.8478	   0.8696	  59.5787	  36.3650	
 -15.0000	 -85.0000	  40.0000	  -0.3261	  -1.8478	   0.8696	  49.4775	  32.6350	
 -12.5000	 -85.0000	  40.0000	  -0.2717	  -1.8478	   0.8696	  39.3762	  28.9050	
 -10.0000	 -85.0000	  40.0000	  -0.2174	  -1.8478	   0.8696	  30.5133	  25.3353	
  -7.5000	 -85.0000	  40.0000	  -0.1630	  -1.8478	   0.8696	  24.7462	  22.1662	
  -5.0000	 -85.0000	  40.0000	  -0.1087	  -1.8478	   0.8696	  20.2175	  19.1575	
  -2.5000	 -85.0000	  40.0000	  -0.0543	  -1.8478	   0.8696	  15.6887	  16.1487	
   0.0000	 -85.0000	  40.0000	   0.0000	  -1.8478	   0.8696	  11.9397	  13.4572	
   2.5000	 -85.0000	  40.0000	   0.0543	  -1.8478	   0.8696	  10.1400	  11.5588	
   5.0000	 -85.0000	  40.0000	   0.1087	  -1.8478	   0.8696	   9.1200	   9.9775	
   7.5000	 -85.0000	  40.0000	   0.1630	  -1.8478	   0.8696	   8.1000	   8.3963	
  10.0000	 -85.0000	  40.0000	   0.2174	  -1.8478	   0.8696	   7.2350	   7.0956	
  12.5000	 -85.0000	  40.0000	   0.2717	  -1.8478	   0.8696	   6.7575	   6.4962	
  15.0000	 -85.0000	  40.0000	   0.3261	  -1.8478	   0.8696	   6.4350	   6.1775	
  17.5000	 -85.0000	  40.0000	   0.3804	  -1.8478	   0.8696	   6.1125	   5.8588	
  20.0000	 -85.0000	  40.0000	   0.4348	  -1.8478	   0.8696	   5.7900	   5.5400	
 -20.0000	 -85.0000	  42.5000	  -0.4348	  -1.8478	   0.9239	  66.3050	  39.8725	
 -17.5000	 -85.0000	  42.5000	  -0.3804	  -1.8478	   0.9239	  56.4669	  35.9587	
 -15.0000	 -85.0000	  42.5000	  -0.3261	  -1.8478	   0.9239	  46.6287	  32.0450	
 -12.5000	 -85.0000	  42.5000	  -0.2717	  -1.8478	   0.9239	  36.7906	  28.1313	
 -10.0000	 -85.0000	  42.5000	  -0.2174	  -1.8478	   0.9239	  27.9292	  24.3509	
  -7.5000	 -85.0000	  42.5000	  -0.1630	  -1.8478	   0.9239	  22.8119	  21.0819	
  -5.0000	 -85.0000	  42.5000	  -0.1087	  -1.8478	   0.9239	  18.6712	  17.9462	
  -2.5000	 -85.0000	  42.5000	  -0.0543	  -1.8478	   0.9239	  14.5306	  14.8106	
   0.0000	 -85.0000	  42.5000	   0.0000	  -1.8478	   0.9239	  10.9601	  12.0050	
   2.5000	 -85.0000	  42.5000	   0.0543	  -1.8478	   0.9239	   9.5750	  10.4644	
   5.0000	 -85.0000	  42.5000	   0.1087	  -1.8478	   0.9239	   8.7600	   9.2537	
   7.5000	 -85.0000	  42.5000	   0.1630	  -1.8478	   0.9239	   7.9450	   8.0431	
  10.0000	 -85.0000	  42.5000	   0.2174	  -1.8478	   0.9239	   7.2277	   6.9969	
  12.5000	 -85.0000	  42.5000	   0.2717	  -1.8478	   0.9239	   6.8850	   6.5806	
  15.0000	 -85.0000	  42.5000	   0.3261	  -1.8478	   0.9239	   6.6400	   6.3288	
  17.5000	 -85.0000	  42.5000	   0.3804	  -1.8478	   0.9239	   6.3950	   6.0769	
  20.0000	 -85.0000	  42.5000	   0.4348	  -1.8478	   0.9239	   6.1500	   5.8250	
 -20.0000	 -85.0000	  45.0000	  -0.4348	  -1.8478	   0.9783	  62.9300	  39.6500	
 -17.5000	 -85.0000	  45.0000	  -0.3804	  -1.8478	   0.9783	  52.8806	  35.1302	
 -15.0000	 -85.0000	  45.0000	  -0.3261	  -1.8478	   0.9783	  43.4556	  31.0842	
 -12.5000	 -85.0000	  45.0000	  -0.2717	  -1.8478	   0.9783	  34.1789	  27.2076	
 -10.0000	 -85.0000	  45.0000	  -0.2174	  -1.8478	   0.9783	  24.6300	  23.2600	
  -7.5000	 -85.0000	  45.0000	  -0.1630	  -1.8478	   0.9783	  21.0855	  20.0517	
  -5.0000	 -85.0000	  45.0000	  -0.1087	  -1.8478	   0.9783	  17.4075	  16.8933	
  -2.5000	 -85.0000	  45.0000	  -0.0543	  -1.8478	   0.9783	  13.6004	  13.6626	
   0.0000	 -85.0000	  45.0000	   0.0000	  -1.8478	   0.9783	   9.6200	  10.2100	
   2.5000	 -85.0000	  45.0000	   0.0543	  -1.8478	   0.9783	   9.1959	   9.5636	
   5.0000	 -85.0000	  45.0000	   0.1087	  -1.8478	   0.9783	   8.5736	   8.6975	
   7.5000	 -85.0000	  45.0000	   0.1630	  -1.8478	   0.9783	   7.8720	   7.7548	
  10.0000	 -85.0000	  45.0000	   0.2174	  -1.8478	   0.9783	   7.1800	   6.8500	
  12.5000	 -85.0000	  45.0000	   0.2717	  -1.8478	   0.9783	   7.0240	   6.6495	
  15.0000	 -85.0000	  45.0000	   0.3261	  -1.8478	   0.9783	   6.8358	   6.4392	
  17.5000	 -85.0000	  45.0000	   0.3804	  -1.8478	   0.9783	   6.6519	   6.2475	
  20.0000	 -85.0000	  45.0000	   0.4348	  -1.8478	   0.9783	   6.5100	   6.1100	
 -20.0000	 -85.0000	  47.5000	  -0.4348	  -1.8478	   1.0326	  55.4800	  36.1700	
 -17.5000	 -85.0000	  47.5000	  -0.3804	  -1.8478	   1.0326	  47.4756	  32.6831	
 -15.0000	 -85.0000	  47.5000	  -0.3261	  -1.8478	   1.0326	  39.4712	  29.1962	
 -12.5000	 -85.0000	  47.5000	  -0.2717	  -1.8478	   1.0326	  31.4669	  25.7094	
 -10.0000	 -85.0000	  47.5000	  -0.2174	  -1.8478	   1.0326	  24.2679	  22.3071	
  -7.5000	 -85.0000	  47.5000	  -0.1630	  -1.8478	   1.0326	  20.1562	  19.2294	
  -5.0000	 -85.0000	  47.5000	  -0.1087	  -1.8478	   1.0326	  16.8500	  16.2363	
  -2.5000	 -85.0000	  47.5000	  -0.0543	  -1.8478	   1.0326	  13.5437	  13.2431	
   0.0000	 -85.0000	  47.5000	   0.0000	  -1.8478	   1.0326	  10.6829	  10.6182	
   2.5000	 -85.0000	  47.5000	   0.0543	  -1.8478	   1.0326	   9.5294	   9.4050	
   5.0000	 -85.0000	  47.5000	   0.1087	  -1.8478	   1.0326	   8.8212	   8.5600	
   7.5000	 -85.0000	  47.5000	   0.1630	  -1.8478	   1.0326	   8.1131	   7.7150	
  10.0000	 -85.0000	  47.5000	   0.2174	  -1.8478	   1.0326	   7.4924	   6.9786	
  12.5000	 -85.0000	  47.5000	   0.2717	  -1.8478	   1.0326	   7.2069	   6.6587	
  15.0000	 -85.0000	  47.5000	   0.3261	  -1.8478	   1.0326	   7.0087	   6.4475	
  17.5000	 -85.0000	  47.5000	   0.3804	  -1.8478	   1.0326	   6.8106	   6.2363	
  20.0000	 -85.0000	  47.5000	   0.4348	  -1.8478	   1.0326	   6.6125	   6.0250	
 -20.0000	 -85.0000	  50.0000	  -0.4348	  -1.8478	   1.0870	  48.0300	  32.6900	
 -17.5000	 -85.0000	  50.0000	  -0.3804	  -1.8478	   1.0870	  41.5962	  29.8137	
 -15.0000	 -85.0000	  50.0000	  -0.3261	  -1.8478	   1.0870	  35.1625	  26.9375	
 -12.5000	 -85.0000	  50.0000	  -0.2717	  -1.8478	   1.0870	  28.7288	  24.0613	
 -10.0000	 -85.0000	  50.0000	  -0.2174	  -1.8478	   1.0870	  23.0892	  21.2189	
  -7.5000	 -85.0000	  50.0000	  -0.1630	  -1.8478	   1.0870	  19.4350	  18.4612	
  -5.0000	 -85.0000	  50.0000	  -0.1087	  -1.8478	   1.0870	  16.5750	  15.7375	
  -2.5000	 -85.0000	  50.0000	  -0.0543	  -1.8478	   1.0870	  13.7150	  13.0137	
   0.0000	 -85.0000	  50.0000	   0.0000	  -1.8478	   1.0870	  11.3114	  10.7064	
   2.5000	 -85.0000	  50.0000	   0.0543	  -1.8478	   1.0870	  10.0487	   9.4400	
   5.0000	 -85.0000	  50.0000	   0.1087	  -1.8478	   1.0870	   9.2425	   8.5900	
   7.5000	 -85.0000	  50.0000	   0.1630	  -1.8478	   1.0870	   8.4363	   7.7400	
  10.0000	 -85.0000	  50.0000	   0.2174	  -1.8478	   1.0870	   7.7583	   7.0261	
  12.5000	 -85.0000	  50.0000	   0.2717	  -1.8478	   1.0870	   7.4012	   6.6525	
  15.0000	 -85.0000	  50.0000	   0.3261	  -1.8478	   1.0870	   7.1725	   6.4150	
  17.5000	 -85.0000	  50.0000	   0.3804	  -1.8478	   1.0870	   6.9438	   6.1775	
  20.0000	 -85.0000	  50.0000	   0.4348	  -1.8478	   1.0870	   6.7150	   5.9400	
 -20.0000	 -85.0000	  52.5000	  -0.4348	  -1.8478	   1.1413	  40.5800	  29.2100	
 -17.5000	 -85.0000	  52.5000	  -0.3804	  -1.8478	   1.1413	  35.7169	  26.9444	
 -15.0000	 -85.0000	  52.5000	  -0.3261	  -1.8478	   1.1413	  30.8537	  24.6787	
 -12.5000	 -85.0000	  52.5000	  -0.2717	  -1.8478	   1.1413	  25.9906	  22.4131	
 -10.0000	 -85.0000	  52.5000	  -0.2174	  -1.8478	   1.1413	  21.5474	  20.1151	
  -7.5000	 -85.0000	  52.5000	  -0.1630	  -1.8478	   1.1413	  18.7138	  17.6931	
  -5.0000	 -85.0000	  52.5000	  -0.1087	  -1.8478	   1.1413	  16.3000	  15.2387	
  -2.5000	 -85.0000	  52.5000	  -0.0543	  -1.8478	   1.1413	  13.8863	  12.7844	
   0.0000	 -85.0000	  52.5000	   0.0000	  -1.8478	   1.1413	  11.7312	  10.6042	
   2.5000	 -85.0000	  52.5000	   0.0543	  -1.8478	   1.1413	  10.5681	   9.4750	
   5.0000	 -85.0000	  52.5000	   0.1087	  -1.8478	   1.1413	   9.6638	   8.6200	
   7.5000	 -85.0000	  52.5000	   0.1630	  -1.8478	   1.1413	   8.7594	   7.7650	
  10.0000	 -85.0000	  52.5000	   0.2174	  -1.8478	   1.1413	   7.9656	   7.0114	
  12.5000	 -85.0000	  52.5000	   0.2717	  -1.8478	   1.1413	   7.5956	   6.6463	
  15.0000	 -85.0000	  52.5000	   0.3261	  -1.8478	   1.1413	   7.3362	   6.3825	
  17.5000	 -85.0000	  52.5000	   0.3804	  -1.8478	   1.1413	   7.0769	   6.1187	
  20.0000	 -85.0000	  52.5000	   0.4348	  -1.8478	   1.1413	   6.8175	   5.8550	
 -20.0000	 -85.0000	  55.0000	  -0.4348	  -1.8478	   1.1957	  33.1300	  25.7300	
 -17.5000	 -85.0000	  55.0000	  -0.3804	  -1.8478	   1.1957	  29.9543	  24.0641	
 -15.0000	 -85.0000	  55.0000	  -0.3261	  -1.8478	   1.1957	  26.5767	  22.3639	
 -12.5000	 -85.0000	  55.0000	  -0.2717	  -1.8478	   1.1957	  23.1846	  20.6894	
 -10.0000	 -85.0000	  55.0000	  -0.2174	  -1.8478	   1.1957	  19.9600	  19.1100	
  -7.5000	 -85.0000	  55.0000	  -0.1630	  -1.8478	   1.1957	  17.8190	  16.8265	
  -5.0000	 -85.0000	  55.0000	  -0.1087	  -1.8478	   1.1957	  15.7831	  14.6247	
  -2.5000	 -85.0000	  55.0000	  -0.0543	  -1.8478	   1.1957	  13.8577	  12.4756	
   0.0000	 -85.0000	  55.0000	   0.0000	  -1.8478	   1.1957	  12.0900	  10.3700	
   2.5000	 -85.0000	  55.0000	   0.0543	  -1.8478	   1.1957	  10.9276	   9.4675	
   5.0000	 -85.0000	  55.0000	   0.1087	  -1.8478	   1.1957	   9.9467	   8.6303	
   7.5000	 -85.0000	  55.0000	   0.1630	  -1.8478	   1.1957	   9.0289	   7.8021	
  10.0000	 -85.0000	  55.0000	   0.2174	  -1.8478	   1.1957	   8.0800	   6.9300	
  12.5000	 -85.0000	  55.0000	   0.2717	  -1.8478	   1.1957	   7.7885	   6.6734	
  15.0000	 -85.0000	  55.0000	   0.3261	  -1.8478	   1.1957	   7.4967	   6.3856	
  17.5000	 -85.0000	  55.0000	   0.3804	  -1.8478	   1.1957	   7.2064	   6.0814	
  20.0000	 -85.0000	  55.0000	   0.4348	  -1.8478	   1.1957	   6.9200	   5.7700	
 -20.0000	 -85.0000	  57.5000	  -0.4348	  -1.8478	   1.2500	  26.9000	  22.3750	
 -17.5000	 -85.0000	  57.5000	  -0.3804	  -1.8478	   1.2500	  24.6394	  21.1419	
 -15.0000	 -85.0000	  57.5000	  -0.3261	  -1.8478	   1.2500	  22.3788	  19.9088	
 -12.5000	 -85.0000	  57.5000	  -0.2717	  -1.8478	   1.2500	  20.1181	  18.6756	
 -10.0000	 -85.0000	  57.5000	  -0.2174	  -1.8478	   1.2500	  17.9711	  17.3350	
  -7.5000	 -85.0000	  57.5000	  -0.1630	  -1.8478	   1.2500	  16.2594	  15.5825	
  -5.0000	 -85.0000	  57.5000	  -0.1087	  -1.8478	   1.2500	  14.6613	  13.7225	