Variables = "x [mm]"	"y [mm]"	"z [mm]"	"x/H"	"y/H"	"z/H"	"U [m/s]"	"V [m/s]"	"Length [m/s]"	"U/U<sub>ref</sub>"	"V/U<sub>ref</sub>"	"Std_U/U<sub>ref</sub>"	"Std_V/U<sub>ref</sub>"	"TKE/U<sub>ref</sub><sup>2</sup>"	"u'v'/U<sub>ref</sub><sup>2</sup> "	"Corr-coeff"	"Skew_U"	"Skew_W"	"Kurt_U"	"Kurt_W"	"Length/U<sub>ref</sub>"	
Zone T = "z=8mm_ImgMean_16x32x64_MovingAvgf3x3" I=17 J=65 F=POINT
 -20.0000	-161.0000	   8.0000	  -0.4348	  -3.5000	   0.1739	   0.1737	  -0.5517	   0.5785	   0.0290	  -0.0919	   0.0467	   0.0867	   0.0073	   0.0017	  -0.4236	   1.0679	   0.6773	   7.3907	   6.0825	   0.0964	
 -17.5000	-161.0000	   8.0000	  -0.3804	  -3.5000	   0.1739	   0.2050	  -0.5689	   0.6047	   0.0342	  -0.0948	   0.0465	   0.0848	   0.0070	   0.0016	  -0.3966	   1.1409	   0.6491	   8.1969	   6.2186	   0.1008	
 -15.0000	-161.0000	   8.0000	  -0.3261	  -3.5000	   0.1739	   0.2413	  -0.5716	   0.6205	   0.0402	  -0.0953	   0.0462	   0.0807	   0.0065	   0.0012	  -0.3232	   1.1906	   0.6432	   8.9667	   6.3872	   0.1034	
 -12.5000	-161.0000	   8.0000	  -0.2717	  -3.5000	   0.1739	   0.2729	  -0.5642	   0.6267	   0.0455	  -0.0940	   0.0463	   0.0756	   0.0059	   0.0009	  -0.2535	   1.1671	   0.6457	   9.5031	   6.1408	   0.1045	
 -10.0000	-161.0000	   8.0000	  -0.2174	  -3.5000	   0.1739	   0.3017	  -0.5454	   0.6233	   0.0503	  -0.0909	   0.0453	   0.0713	   0.0054	   0.0006	  -0.1968	   1.2551	   0.7805	  10.9524	   6.4470	   0.1039	
  -7.5000	-161.0000	   8.0000	  -0.1630	  -3.5000	   0.1739	   0.3378	  -0.5400	   0.6369	   0.0563	  -0.0900	   0.0450	   0.0689	   0.0051	   0.0005	  -0.1577	   1.2008	   0.9048	  10.7122	   6.6917	   0.1062	
  -5.0000	-161.0000	   8.0000	  -0.1087	  -3.5000	   0.1739	   0.3588	  -0.5420	   0.6500	   0.0598	  -0.0903	   0.0450	   0.0679	   0.0050	   0.0004	  -0.1351	   1.0557	   1.1120	   9.8985	   6.7514	   0.1083	
  -2.5000	-161.0000	   8.0000	  -0.0543	  -3.5000	   0.1739	   0.3846	  -0.5653	   0.6838	   0.0641	  -0.0942	   0.0462	   0.0683	   0.0051	   0.0004	  -0.1414	   0.7558	   1.1078	   7.5955	   6.3671	   0.1140	
   0.0000	-161.0000	   8.0000	   0.0000	  -3.5000	   0.1739	   0.4022	  -0.5895	   0.7137	   0.0670	  -0.0983	   0.0477	   0.0683	   0.0052	   0.0004	  -0.1298	   0.6373	   1.0618	   6.9249	   6.1409	   0.1189	
   2.5000	-161.0000	   8.0000	   0.0543	  -3.5000	   0.1739	   0.4036	  -0.5975	   0.7210	   0.0673	  -0.0996	   0.0487	   0.0668	   0.0051	   0.0003	  -0.0864	   0.7268	   1.1406	   8.1401	   6.6053	   0.1202	
   5.0000	-161.0000	   8.0000	   0.1087	  -3.5000	   0.1739	   0.3929	  -0.5940	   0.7122	   0.0655	  -0.0990	   0.0496	   0.0643	   0.0049	   0.0001	  -0.0340	   0.7463	   1.2516	   9.4147	   7.2806	   0.1187	
   7.5000	-161.0000	   8.0000	   0.1630	  -3.5000	   0.1739	   0.3615	  -0.5817	   0.6848	   0.0602	  -0.0969	   0.0500	   0.0615	   0.0047	  -0.0000	   0.0065	   0.5542	   1.3839	   8.3919	   8.2258	   0.1141	
  10.0000	-161.0000	   8.0000	   0.2174	  -3.5000	   0.1739	   0.3118	  -0.5761	   0.6550	   0.0520	  -0.0960	   0.0501	   0.0599	   0.0046	   0.0001	  -0.0176	   0.4811	   1.6052	   7.2316	   9.8789	   0.1092	
  12.5000	-161.0000	   8.0000	   0.2717	  -3.5000	   0.1739	   0.2541	  -0.6063	   0.6574	   0.0424	  -0.1010	   0.0493	   0.0606	   0.0046	   0.0002	  -0.0775	   0.5148	   1.8466	   6.4146	  12.2317	   0.1096	
  15.0000	-161.0000	   8.0000	   0.3261	  -3.5000	   0.1739	   0.1963	  -0.6538	   0.6826	   0.0327	  -0.1090	   0.0456	   0.0634	   0.0046	   0.0003	  -0.1193	   0.5717	   1.9390	   5.2796	  13.0846	   0.1138	
  17.5000	-161.0000	   8.0000	   0.3804	  -3.5000	   0.1739	   0.1407	  -0.6965	   0.7106	   0.0234	  -0.1161	   0.0400	   0.0671	   0.0046	   0.0003	  -0.1104	   0.7198	   2.1523	   5.2676	  15.6131	   0.1184	
  20.0000	-161.0000	   8.0000	   0.4348	  -3.5000	   0.1739	   0.0959	  -0.7170	   0.7234	   0.0160	  -0.1195	   0.0348	   0.0706	   0.0047	   0.0002	  -0.0970	   0.8293	   2.1854	   5.3637	  15.9628	   0.1206	
 -20.0000	-158.5000	   8.0000	  -0.4348	  -3.4457	   0.1739	   0.1678	  -0.5792	   0.6031	   0.0280	  -0.0965	   0.0449	   0.0878	   0.0073	   0.0018	  -0.4673	   0.9881	   0.6879	   6.4301	   5.9299	   0.1005	
 -17.5000	-158.5000	   8.0000	  -0.3804	  -3.4457	   0.1739	   0.2028	  -0.5929	   0.6266	   0.0338	  -0.0988	   0.0446	   0.0857	   0.0070	   0.0017	  -0.4446	   0.9836	   0.6790	   6.3196	   6.1131	   0.1044	
 -15.0000	-158.5000	   8.0000	  -0.3261	  -3.4457	   0.1739	   0.2450	  -0.5871	   0.6362	   0.0408	  -0.0978	   0.0447	   0.0815	   0.0065	   0.0013	  -0.3703	   1.0243	   0.6568	   6.9805	   6.0123	   0.1060	
 -12.5000	-158.5000	   8.0000	  -0.2717	  -3.4457	   0.1739	   0.2797	  -0.5630	   0.6287	   0.0466	  -0.0938	   0.0450	   0.0762	   0.0059	   0.0010	  -0.2767	   1.0785	   0.7130	   8.4884	   5.9738	   0.1048	
 -10.0000	-158.5000	   8.0000	  -0.2174	  -3.4457	   0.1739	   0.3011	  -0.5245	   0.6048	   0.0502	  -0.0874	   0.0443	   0.0717	   0.0053	   0.0006	  -0.1849	   1.2229	   0.9297	  10.0933	   6.6398	   0.1008	
  -7.5000	-158.5000	   8.0000	  -0.1630	  -3.4457	   0.1739	   0.3417	  -0.5241	   0.6256	   0.0569	  -0.0874	   0.0449	   0.0699	   0.0052	   0.0005	  -0.1471	   1.3171	   0.9814	  11.6522	   6.6563	   0.1043	
  -5.0000	-158.5000	   8.0000	  -0.1087	  -3.4457	   0.1739	   0.3749	  -0.5445	   0.6611	   0.0625	  -0.0908	   0.0458	   0.0694	   0.0052	   0.0005	  -0.1544	   1.1124	   1.0193	  10.1998	   6.3544	   0.1102	
  -2.5000	-158.5000	   8.0000	  -0.0543	  -3.4457	   0.1739	   0.3989	  -0.5649	   0.6915	   0.0665	  -0.0941	   0.0469	   0.0701	   0.0053	   0.0005	  -0.1579	   0.7973	   1.0409	   7.6615	   6.0780	   0.1153	
   0.0000	-158.5000	   8.0000	   0.0000	  -3.4457	   0.1739	   0.4163	  -0.5852	   0.7182	   0.0694	  -0.0975	   0.0476	   0.0702	   0.0054	   0.0005	  -0.1485	   0.5854	   1.0326	   6.3265	   6.0018	   0.1197	
   2.5000	-158.5000	   8.0000	   0.0543	  -3.4457	   0.1739	   0.4219	  -0.5966	   0.7307	   0.0703	  -0.0994	   0.0487	   0.0690	   0.0054	   0.0003	  -0.0977	   0.6931	   1.0820	   7.9011	   6.1426	   0.1218	
   5.0000	-158.5000	   8.0000	   0.1087	  -3.4457	   0.1739	   0.4140	  -0.5962	   0.7258	   0.0690	  -0.0994	   0.0499	   0.0667	   0.0052	   0.0001	  -0.0325	   0.8489	   1.2074	  11.3003	   7.0468	   0.1210	
   7.5000	-158.5000	   8.0000	   0.1630	  -3.4457	   0.1739	   0.3820	  -0.5847	   0.6984	   0.0637	  -0.0974	   0.0510	   0.0633	   0.0050	  -0.0000	   0.0011	   0.6737	   1.3203	  10.2686	   7.8858	   0.1164	
  10.0000	-158.5000	   8.0000	   0.2174	  -3.4457	   0.1739	   0.3221	  -0.5732	   0.6576	   0.0537	  -0.0955	   0.0509	   0.0613	   0.0048	   0.0001	  -0.0333	   0.6101	   1.5255	   8.8544	   8.7656	   0.1096	
  12.5000	-158.5000	   8.0000	   0.2717	  -3.4457	   0.1739	   0.2613	  -0.6065	   0.6604	   0.0436	  -0.1011	   0.0502	   0.0628	   0.0049	   0.0003	  -0.1097	   0.5870	   1.7741	   6.8758	  11.0147	   0.1101	
  15.0000	-158.5000	   8.0000	   0.3261	  -3.4457	   0.1739	   0.2083	  -0.6654	   0.6973	   0.0347	  -0.1109	   0.0468	   0.0657	   0.0049	   0.0004	  -0.1398	   0.6657	   1.9359	   6.3273	  13.1099	   0.1162	
  17.5000	-158.5000	   8.0000	   0.3804	  -3.4457	   0.1739	   0.1531	  -0.7020	   0.7186	   0.0255	  -0.1170	   0.0405	   0.0686	   0.0048	   0.0003	  -0.0997	   0.6935	   2.1068	   4.8643	  15.1103	   0.1198	
  20.0000	-158.5000	   8.0000	   0.4348	  -3.4457	   0.1739	   0.1052	  -0.7070	   0.7148	   0.0175	  -0.1178	   0.0348	   0.0721	   0.0048	   0.0001	  -0.0555	   0.7777	   2.0980	   4.5262	  14.9012	   0.1191	
 -20.0000	-156.0000	   8.0000	  -0.4348	  -3.3913	   0.1739	   0.1493	  -0.6080	   0.6261	   0.0249	  -0.1013	   0.0407	   0.0893	   0.0072	   0.0017	  -0.4683	   0.9761	   0.6667	   6.2276	   5.9028	   0.1043	
 -17.5000	-156.0000	   8.0000	  -0.3804	  -3.3913	   0.1739	   0.1884	  -0.6147	   0.6429	   0.0314	  -0.1025	   0.0411	   0.0872	   0.0070	   0.0016	  -0.4517	   0.9268	   0.7043	   5.7602	   6.2312	   0.1071	
 -15.0000	-156.0000	   8.0000	  -0.3261	  -3.3913	   0.1739	   0.2397	  -0.5994	   0.6456	   0.0400	  -0.0999	   0.0422	   0.0823	   0.0064	   0.0013	  -0.3838	   0.9055	   0.7482	   5.8407	   6.2854	   0.1076	
 -12.5000	-156.0000	   8.0000	  -0.2717	  -3.3913	   0.1739	   0.2796	  -0.5604	   0.6263	   0.0466	  -0.0934	   0.0433	   0.0771	   0.0059	   0.0010	  -0.2862	   1.0074	   0.7988	   7.3348	   5.9933	   0.1044	
 -10.0000	-156.0000	   8.0000	  -0.2174	  -3.3913	   0.1739	   0.3082	  -0.5238	   0.6078	   0.0514	  -0.0873	   0.0441	   0.0732	   0.0055	   0.0006	  -0.1990	   1.2155	   0.9776	   9.9021	   6.6438	   0.1013	
  -7.5000	-156.0000	   8.0000	  -0.1630	  -3.3913	   0.1739	   0.3492	  -0.5240	   0.6296	   0.0582	  -0.0873	   0.0454	   0.0717	   0.0054	   0.0006	  -0.1779	   1.2854	   1.0324	  11.4209	   6.9073	   0.1049	
  -5.0000	-156.0000	   8.0000	  -0.1087	  -3.3913	   0.1739	   0.3803	  -0.5366	   0.6577	   0.0634	  -0.0894	   0.0461	   0.0712	   0.0054	   0.0006	  -0.1765	   1.1867	   1.0700	  11.1119	   6.8812	   0.1096	
  -2.5000	-156.0000	   8.0000	  -0.0543	  -3.3913	   0.1739	   0.4097	  -0.5610	   0.6947	   0.0683	  -0.0935	   0.0474	   0.0718	   0.0055	   0.0006	  -0.1780	   0.9193	   1.0385	   8.7196	   6.3153	   0.1158	
   0.0000	-156.0000	   8.0000	   0.0000	  -3.3913	   0.1739	   0.4244	  -0.5756	   0.7152	   0.0707	  -0.0959	   0.0474	   0.0712	   0.0055	   0.0005	  -0.1584	   0.6815	   1.0607	   6.5784	   6.2614	   0.1192	
   2.5000	-156.0000	   8.0000	   0.0543	  -3.3913	   0.1739	   0.4275	  -0.5832	   0.7231	   0.0712	  -0.0972	   0.0475	   0.0703	   0.0054	   0.0003	  -0.1010	   0.5805	   1.1376	   6.0370	   6.4850	   0.1205	
   5.0000	-156.0000	   8.0000	   0.1087	  -3.3913	   0.1739	   0.4314	  -0.5974	   0.7369	   0.0719	  -0.0996	   0.0496	   0.0686	   0.0054	   0.0001	  -0.0393	   0.6514	   1.1702	   8.5842	   6.8966	   0.1228	
   7.5000	-156.0000	   8.0000	   0.1630	  -3.3913	   0.1739	   0.3994	  -0.5847	   0.7081	   0.0666	  -0.0974	   0.0517	   0.0651	   0.0052	   0.0000	  -0.0058	   0.7114	   1.2568	  10.4283	   7.4346	   0.1180	
  10.0000	-156.0000	   8.0000	   0.2174	  -3.3913	   0.1739	   0.3379	  -0.5816	   0.6726	   0.0563	  -0.0969	   0.0530	   0.0638	   0.0052	   0.0002	  -0.0683	   0.6059	   1.4870	   8.1730	   8.7356	   0.1121	
  12.5000	-156.0000	   8.0000	   0.2717	  -3.3913	   0.1739	   0.2734	  -0.6154	   0.6734	   0.0456	  -0.1026	   0.0522	   0.0657	   0.0053	   0.0005	  -0.1605	   0.6729	   1.7037	   7.6488	  10.3576	   0.1122	
  15.0000	-156.0000	   8.0000	   0.3261	  -3.3913	   0.1739	   0.2153	  -0.6608	   0.6950	   0.0359	  -0.1101	   0.0470	   0.0682	   0.0051	   0.0006	  -0.1720	   0.6642	   1.8138	   6.2314	  11.1191	   0.1158	
  17.5000	-156.0000	   8.0000	   0.3804	  -3.3913	   0.1739	   0.1617	  -0.6806	   0.6996	   0.0269	  -0.1134	   0.0395	   0.0705	   0.0049	   0.0003	  -0.0926	   0.5969	   1.8943	   4.6838	  11.8625	   0.1166	
  20.0000	-156.0000	   8.0000	   0.4348	  -3.3913	   0.1739	   0.1167	  -0.6807	   0.6906	   0.0194	  -0.1134	   0.0337	   0.0739	   0.0049	   0.0000	  -0.0123	   0.7618	   1.8424	   5.0394	  11.5811	   0.1151	
 -20.0000	-153.5000	   8.0000	  -0.4348	  -3.3370	   0.1739	   0.1268	  -0.6412	   0.6535	   0.0211	  -0.1069	   0.0358	   0.0897	   0.0070	   0.0014	  -0.4299	   0.9478	   0.6763	   5.0908	   6.0443	   0.1089	
 -17.5000	-153.5000	   8.0000	  -0.3804	  -3.3370	   0.1739	   0.1672	  -0.6398	   0.6612	   0.0279	  -0.1066	   0.0372	   0.0882	   0.0069	   0.0014	  -0.4231	   0.8529	   0.7454	   4.6797	   6.5736	   0.1102	
 -15.0000	-153.5000	   8.0000	  -0.3261	  -3.3370	   0.1739	   0.2268	  -0.6118	   0.6525	   0.0378	  -0.1020	   0.0397	   0.0835	   0.0064	   0.0012	  -0.3544	   0.8899	   0.8329	   5.4092	   6.8135	   0.1088	
 -12.5000	-153.5000	   8.0000	  -0.2717	  -3.3370	   0.1739	   0.2805	  -0.5712	   0.6363	   0.0467	  -0.0952	   0.0421	   0.0786	   0.0060	   0.0009	  -0.2721	   0.9684	   0.9319	   6.9679	   7.0567	   0.1061	
 -10.0000	-153.5000	   8.0000	  -0.2174	  -3.3370	   0.1739	   0.3180	  -0.5346	   0.6221	   0.0530	  -0.0891	   0.0436	   0.0745	   0.0056	   0.0007	  -0.2101	   1.1638	   1.0618	   9.5622	   7.3410	   0.1037	
  -7.5000	-153.5000	   8.0000	  -0.1630	  -3.3370	   0.1739	   0.3528	  -0.5203	   0.6286	   0.0588	  -0.0867	   0.0455	   0.0731	   0.0056	   0.0006	  -0.1915	   1.3509	   1.1739	  12.7845	   7.6677	   0.1048	
  -5.0000	-153.5000	   8.0000	  -0.1087	  -3.3370	   0.1739	   0.3725	  -0.5117	   0.6329	   0.0621	  -0.0853	   0.0456	   0.0719	   0.0054	   0.0006	  -0.1685	   1.3787	   1.2857	  13.3547	   7.9533	   0.1055	
  -2.5000	-153.5000	   8.0000	  -0.0543	  -3.3370	   0.1739	   0.4139	  -0.5513	   0.6894	   0.0690	  -0.0919	   0.0473	   0.0725	   0.0056	   0.0006	  -0.1879	   0.9952	   1.1685	   9.3309	   7.4655	   0.1149	
   0.0000	-153.5000	   8.0000	   0.0000	  -3.3370	   0.1739	   0.4377	  -0.5790	   0.7258	   0.0729	  -0.0965	   0.0481	   0.0724	   0.0057	   0.0006	  -0.1850	   0.7524	   1.1297	   7.0474	   7.2729	   0.1210	
   2.5000	-153.5000	   8.0000	   0.0543	  -3.3370	   0.1739	   0.4453	  -0.5911	   0.7401	   0.0742	  -0.0985	   0.0482	   0.0719	   0.0056	   0.0005	  -0.1324	   0.7490	   1.1499	   7.4288	   6.8876	   0.1234	
   5.0000	-153.5000	   8.0000	   0.1087	  -3.3370	   0.1739	   0.4509	  -0.6017	   0.7520	   0.0752	  -0.1003	   0.0501	   0.0703	   0.0056	   0.0002	  -0.0697	   0.6238	   1.1394	   7.5825	   6.8411	   0.1253	
   7.5000	-153.5000	   8.0000	   0.1630	  -3.3370	   0.1739	   0.4180	  -0.5856	   0.7195	   0.0697	  -0.0976	   0.0532	   0.0674	   0.0055	   0.0002	  -0.0487	   0.5304	   1.3119	   7.9017	   8.1987	   0.1199	
  10.0000	-153.5000	   8.0000	   0.2174	  -3.3370	   0.1739	   0.3520	  -0.5868	   0.6843	   0.0587	  -0.0978	   0.0560	   0.0669	   0.0057	   0.0006	  -0.1516	   0.4216	   1.5230	   6.1972	   9.2428	   0.1141	
  12.5000	-153.5000	   8.0000	   0.2717	  -3.3370	   0.1739	   0.2808	  -0.6239	   0.6842	   0.0468	  -0.1040	   0.0542	   0.0696	   0.0058	   0.0009	  -0.2401	   0.5754	   1.5996	   5.8483	   9.2942	   0.1140	
  15.0000	-153.5000	   8.0000	   0.3261	  -3.3370	   0.1739	   0.2198	  -0.6600	   0.6956	   0.0366	  -0.1100	   0.0464	   0.0715	   0.0055	   0.0007	  -0.1953	   0.5757	   1.7250	   4.9106	  10.1242	   0.1159	
  17.5000	-153.5000	   8.0000	   0.3804	  -3.3370	   0.1739	   0.1705	  -0.6694	   0.6908	   0.0284	  -0.1116	   0.0383	   0.0732	   0.0051	   0.0002	  -0.0614	   0.5163	   1.8219	   4.5540	  10.6742	   0.1151	
  20.0000	-153.5000	   8.0000	   0.4348	  -3.3370	   0.1739	   0.1305	  -0.6722	   0.6848	   0.0217	  -0.1120	   0.0331	   0.0756	   0.0051	  -0.0001	   0.0286	   0.6615	   1.7545	   5.1710	  10.3415	   0.1141	
 -20.0000	-151.0000	   8.0000	  -0.4348	  -3.2826	   0.1739	   0.1099	  -0.6615	   0.6704	   0.0183	  -0.1102	   0.0322	   0.0891	   0.0067	   0.0010	  -0.3473	   1.0022	   0.7968	   5.0712	   6.5446	   0.1117	
 -17.5000	-151.0000	   8.0000	  -0.3804	  -3.2826	   0.1739	   0.1513	  -0.6589	   0.6760	   0.0252	  -0.1098	   0.0345	   0.0880	   0.0067	   0.0011	  -0.3614	   0.8677	   0.8153	   4.6288	   6.9994	   0.1127	
 -15.0000	-151.0000	   8.0000	  -0.3261	  -3.2826	   0.1739	   0.2171	  -0.6275	   0.6641	   0.0362	  -0.1046	   0.0381	   0.0848	   0.0065	   0.0011	  -0.3275	   0.8630	   0.9081	   5.5263	   7.4700	   0.1107	
 -12.5000	-151.0000	   8.0000	  -0.2717	  -3.2826	   0.1739	   0.2833	  -0.5889	   0.6535	   0.0472	  -0.0982	   0.0419	   0.0810	   0.0062	   0.0009	  -0.2720	   0.8754	   0.9841	   6.5366	   7.6453	   0.1089	
 -10.0000	-151.0000	   8.0000	  -0.2174	  -3.2826	   0.1739	   0.3289	  -0.5524	   0.6429	   0.0548	  -0.0921	   0.0444	   0.0768	   0.0059	   0.0008	  -0.2381	   0.9712	   1.0283	   7.7694	   7.3153	   0.1072	
  -7.5000	-151.0000	   8.0000	  -0.1630	  -3.2826	   0.1739	   0.3656	  -0.5359	   0.6488	   0.0609	  -0.0893	   0.0462	   0.0750	   0.0058	   0.0008	  -0.2199	   1.1354	   1.0997	  10.4821	   7.2528	   0.1081	
  -5.0000	-151.0000	   8.0000	  -0.1087	  -3.2826	   0.1739	   0.3936	  -0.5312	   0.6611	   0.0656	  -0.0885	   0.0471	   0.0740	   0.0058	   0.0007	  -0.1972	   1.2081	   1.2016	  11.4568	   7.6284	   0.1102	
  -2.5000	-151.0000	   8.0000	  -0.0543	  -3.2826	   0.1739	   0.4304	  -0.5638	   0.7093	   0.0717	  -0.0940	   0.0487	   0.0742	   0.0059	   0.0007	  -0.2056	   0.9864	   1.1826	   9.5217	   7.8704	   0.1182	
   0.0000	-151.0000	   8.0000	   0.0000	  -3.2826	   0.1739	   0.4552	  -0.5985	   0.7519	   0.0759	  -0.0997	   0.0500	   0.0744	   0.0060	   0.0008	  -0.2062	   0.8022	   1.1633	   7.7138	   8.0671	   0.1253	
   2.5000	-151.0000	   8.0000	   0.0543	  -3.2826	   0.1739	   0.4664	  -0.6195	   0.7754	   0.0777	  -0.1033	   0.0501	   0.0737	   0.0060	   0.0007	  -0.1791	   0.7764	   1.0782	   7.9856	   7.1195	   0.1292	
   5.0000	-151.0000	   8.0000	   0.1087	  -3.2826	   0.1739	   0.4692	  -0.6184	   0.7763	   0.0782	  -0.1031	   0.0514	   0.0726	   0.0059	   0.0005	  -0.1216	   0.6248	   1.1491	   7.8845	   7.1623	   0.1294	
   7.5000	-151.0000	   8.0000	   0.1630	  -3.2826	   0.1739	   0.4356	  -0.5906	   0.7338	   0.0726	  -0.0984	   0.0556	   0.0702	   0.0060	   0.0005	  -0.1157	   0.3702	   1.2924	   6.6438	   7.7077	   0.1223	
  10.0000	-151.0000	   8.0000	   0.2174	  -3.2826	   0.1739	   0.3542	  -0.5857	   0.6846	   0.0590	  -0.0976	   0.0584	   0.0711	   0.0063	   0.0009	  -0.2251	   0.2412	   1.5141	   4.2745	   8.9523	   0.1141	
  12.5000	-151.0000	   8.0000	   0.2717	  -3.2826	   0.1739	   0.2751	  -0.6317	   0.6889	   0.0458	  -0.1053	   0.0545	   0.0745	   0.0064	   0.0012	  -0.2922	   0.4279	   1.5029	   4.0451	   8.3763	   0.1148	
  15.0000	-151.0000	   8.0000	   0.3261	  -3.2826	   0.1739	   0.2261	  -0.6838	   0.7202	   0.0377	  -0.1140	   0.0460	   0.0746	   0.0058	   0.0007	  -0.2092	   0.4482	   1.5582	   3.9993	   8.8995	   0.1200	
  17.5000	-151.0000	   8.0000	   0.3804	  -3.2826	   0.1739	   0.1847	  -0.6995	   0.7234	   0.0308	  -0.1166	   0.0389	   0.0745	   0.0053	   0.0001	  -0.0499	   0.4239	   1.7224	   4.2497	  10.0096	   0.1206	
  20.0000	-151.0000	   8.0000	   0.4348	  -3.2826	   0.1739	   0.1451	  -0.6902	   0.7053	   0.0242	  -0.1150	   0.0345	   0.0770	   0.0053	  -0.0001	   0.0538	   0.6259	   1.7466	   4.7093	  10.3116	   0.1176	
 -20.0000	-148.5000	   8.0000	  -0.4348	  -3.2283	   0.1739	   0.0962	  -0.6698	   0.6765	   0.0160	  -0.1116	   0.0300	   0.0879	   0.0065	   0.0007	  -0.2691	   1.0679	   0.9585	   5.3327	   7.0210	   0.1127	
 -17.5000	-148.5000	   8.0000	  -0.3804	  -3.2283	   0.1739	   0.1402	  -0.6667	   0.6812	   0.0234	  -0.1111	   0.0332	   0.0875	   0.0066	   0.0009	  -0.2955	   0.9068	   0.9474	   4.9177	   7.2215	   0.1135	
 -15.0000	-148.5000	   8.0000	  -0.3261	  -3.2283	   0.1739	   0.2102	  -0.6379	   0.6717	   0.0350	  -0.1063	   0.0376	   0.0853	   0.0065	   0.0010	  -0.2985	   0.8489	   0.9595	   5.4984	   7.4236	   0.1120	
 -12.5000	-148.5000	   8.0000	  -0.2717	  -3.2283	   0.1739	   0.2842	  -0.6026	   0.6662	   0.0474	  -0.1004	   0.0421	   0.0826	   0.0065	   0.0010	  -0.2780	   0.8003	   0.9810	   5.8495	   7.8481	   0.1110	
 -10.0000	-148.5000	   8.0000	  -0.2174	  -3.2283	   0.1739	   0.3400	  -0.5714	   0.6649	   0.0567	  -0.0952	   0.0454	   0.0793	   0.0063	   0.0010	  -0.2651	   0.8526	   0.9543	   6.8599	   7.2679	   0.1108	
  -7.5000	-148.5000	   8.0000	  -0.1630	  -3.2283	   0.1739	   0.3860	  -0.5622	   0.6820	   0.0643	  -0.0937	   0.0473	   0.0771	   0.0061	   0.0009	  -0.2545	   0.8971	   0.9417	   8.2030	   6.7216	   0.1137	
  -5.0000	-148.5000	   8.0000	  -0.1087	  -3.2283	   0.1739	   0.4259	  -0.5733	   0.7141	   0.0710	  -0.0955	   0.0492	   0.0761	   0.0062	   0.0009	  -0.2397	   0.9391	   0.9978	   9.1583	   6.8780	   0.1190	
  -2.5000	-148.5000	   8.0000	  -0.0543	  -3.2283	   0.1739	   0.4521	  -0.5919	   0.7448	   0.0754	  -0.0986	   0.0507	   0.0760	   0.0063	   0.0009	  -0.2309	   0.9249	   1.1146	   9.0043	   7.6509	   0.1241	
   0.0000	-148.5000	   8.0000	   0.0000	  -3.2283	   0.1739	   0.4653	  -0.6132	   0.7697	   0.0775	  -0.1022	   0.0513	   0.0758	   0.0063	   0.0009	  -0.2193	   0.7999	   1.1908	   7.2767	   8.2388	   0.1283	
   2.5000	-148.5000	   8.0000	   0.0543	  -3.2283	   0.1739	   0.4712	  -0.6376	   0.7928	   0.0785	  -0.1063	   0.0515	   0.0748	   0.0062	   0.0008	  -0.2111	   0.7298	   1.1019	   7.1562	   7.4053	   0.1321	
   5.0000	-148.5000	   8.0000	   0.1087	  -3.2283	   0.1739	   0.4710	  -0.6412	   0.7956	   0.0785	  -0.1069	   0.0522	   0.0740	   0.0062	   0.0007	  -0.1855	   0.6231	   1.1053	   7.3313	   6.9863	   0.1326	
   7.5000	-148.5000	   8.0000	   0.1630	  -3.2283	   0.1739	   0.4352	  -0.6086	   0.7483	   0.0725	  -0.1014	   0.0561	   0.0732	   0.0064	   0.0007	  -0.1759	   0.3342	   1.1926	   5.7071	   6.9229	   0.1247	
  10.0000	-148.5000	   8.0000	   0.2174	  -3.2283	   0.1739	   0.3477	  -0.6049	   0.6980	   0.0580	  -0.1008	   0.0577	   0.0754	   0.0068	   0.0010	  -0.2350	   0.2726	   1.3968	   4.2154	   8.3263	   0.1163	
  12.5000	-148.5000	   8.0000	   0.2717	  -3.2283	   0.1739	   0.2746	  -0.6578	   0.7126	   0.0458	  -0.1096	   0.0526	   0.0785	   0.0067	   0.0010	  -0.2419	   0.3905	   1.3824	   3.9725	   7.7513	   0.1188	
  15.0000	-148.5000	   8.0000	   0.3261	  -3.2283	   0.1739	   0.2402	  -0.7116	   0.7510	   0.0400	  -0.1186	   0.0460	   0.0768	   0.0060	   0.0005	  -0.1484	   0.3970	   1.4731	   4.1550	   8.4979	   0.1252	
  17.5000	-148.5000	   8.0000	   0.3804	  -3.2283	   0.1739	   0.2049	  -0.7419	   0.7696	   0.0341	  -0.1236	   0.0412	   0.0749	   0.0055	   0.0001	  -0.0370	   0.4075	   1.6744	   4.2440	   9.9834	   0.1283	
  20.0000	-148.5000	   8.0000	   0.4348	  -3.2283	   0.1739	   0.1635	  -0.7409	   0.7587	   0.0273	  -0.1235	   0.0370	   0.0759	   0.0054	  -0.0001	   0.0290	   0.5871	   1.7485	   4.3360	  10.6564	   0.1265	
 -20.0000	-146.0000	   8.0000	  -0.4348	  -3.1739	   0.1739	   0.0903	  -0.6797	   0.6854	   0.0150	  -0.1133	   0.0294	   0.0878	   0.0064	   0.0006	  -0.2314	   1.0651	   1.0706	   5.5496	   7.1620	   0.1142	
 -17.5000	-146.0000	   8.0000	  -0.3804	  -3.1739	   0.1739	   0.1336	  -0.6756	   0.6886	   0.0223	  -0.1126	   0.0330	   0.0873	   0.0065	   0.0008	  -0.2622	   0.9065	   1.0237	   5.2477	   7.2221	   0.1148	
 -15.0000	-146.0000	   8.0000	  -0.3261	  -3.1739	   0.1739	   0.2057	  -0.6466	   0.6786	   0.0343	  -0.1078	   0.0378	   0.0856	   0.0066	   0.0009	  -0.2841	   0.8419	   0.9628	   5.5288	   7.2825	   0.1131	
 -12.5000	-146.0000	   8.0000	  -0.2717	  -3.1739	   0.1739	   0.2838	  -0.6118	   0.6744	   0.0473	  -0.1020	   0.0426	   0.0834	   0.0066	   0.0010	  -0.2847	   0.8605	   0.9336	   6.1533	   7.4610	   0.1124	
 -10.0000	-146.0000	   8.0000	  -0.2174	  -3.1739	   0.1739	   0.3405	  -0.5819	   0.6742	   0.0567	  -0.0970	   0.0452	   0.0806	   0.0064	   0.0010	  -0.2758	   0.8735	   0.9574	   7.1181	   7.3276	   0.1124	
  -7.5000	-146.0000	   8.0000	  -0.1630	  -3.1739	   0.1739	   0.3912	  -0.5715	   0.6926	   0.0652	  -0.0953	   0.0474	   0.0785	   0.0063	   0.0010	  -0.2620	   0.8338	   0.9520	   7.2514	   6.8254	   0.1154	
  -5.0000	-146.0000	   8.0000	  -0.1087	  -3.1739	   0.1739	   0.4382	  -0.5878	   0.7332	   0.0730	  -0.0980	   0.0503	   0.0774	   0.0064	   0.0010	  -0.2496	   0.8611	   0.9850	   7.6528	   6.6998	   0.1222	
  -2.5000	-146.0000	   8.0000	  -0.0543	  -3.1739	   0.1739	   0.4668	  -0.6097	   0.7679	   0.0778	  -0.1016	   0.0525	   0.0771	   0.0065	   0.0010	  -0.2419	   0.9082	   1.1069	   8.0436	   7.5238	   0.1280	
   0.0000	-146.0000	   8.0000	   0.0000	  -3.1739	   0.1739	   0.4733	  -0.6267	   0.7854	   0.0789	  -0.1045	   0.0529	   0.0765	   0.0065	   0.0009	  -0.2316	   0.8383	   1.1709	   7.3645	   7.7286	   0.1309	
   2.5000	-146.0000	   8.0000	   0.0543	  -3.1739	   0.1739	   0.4674	  -0.6460	   0.7974	   0.0779	  -0.1077	   0.0529	   0.0752	   0.0063	   0.0009	  -0.2311	   0.7278	   1.0808	   6.8308	   7.0688	   0.1329	
   5.0000	-146.0000	   8.0000	   0.1087	  -3.1739	   0.1739	   0.4508	  -0.6587	   0.7982	   0.0751	  -0.1098	   0.0527	   0.0734	   0.0061	   0.0009	  -0.2435	   0.6209	   0.9906	   6.3097	   6.5389	   0.1330	
   7.5000	-146.0000	   8.0000	   0.1630	  -3.1739	   0.1739	   0.4160	  -0.6417	   0.7647	   0.0693	  -0.1070	   0.0536	   0.0723	   0.0061	   0.0008	  -0.1976	   0.4409	   1.0286	   5.3945	   6.3237	   0.1275	
  10.0000	-146.0000	   8.0000	   0.2174	  -3.1739	   0.1739	   0.3581	  -0.6572	   0.7485	   0.0597	  -0.1095	   0.0535	   0.0753	   0.0064	   0.0006	  -0.1358	   0.4059	   1.1920	   4.9837	   6.9379	   0.1248	
  12.5000	-146.0000	   8.0000	   0.2717	  -3.1739	   0.1739	   0.3032	  -0.7092	   0.7711	   0.0505	  -0.1182	   0.0508	   0.0783	   0.0065	   0.0004	  -0.0963	   0.4082	   1.3328	   4.5193	   7.8897	   0.1285	
  15.0000	-146.0000	   8.0000	   0.3261	  -3.1739	   0.1739	   0.2700	  -0.7421	   0.7898	   0.0450	  -0.1237	   0.0474	   0.0766	   0.0061	   0.0002	  -0.0452	   0.4264	   1.5283	   4.4689	   9.0728	   0.1316	
  17.5000	-146.0000	   8.0000	   0.3804	  -3.1739	   0.1739	   0.2301	  -0.7763	   0.8097	   0.0383	  -0.1294	   0.0437	   0.0748	   0.0056	   0.0000	  -0.0049	   0.4928	   1.7340	   4.3922	  10.6971	   0.1350	
  20.0000	-146.0000	   8.0000	   0.4348	  -3.1739	   0.1739	   0.1855	  -0.7879	   0.8095	   0.0309	  -0.1313	   0.0394	   0.0756	   0.0055	  -0.0001	   0.0182	   0.6121	   1.7702	   4.2714	  11.1327	   0.1349	
 -20.0000	-143.5000	   8.0000	  -0.4348	  -3.1196	   0.1739	   0.0899	  -0.6956	   0.7012	   0.0150	  -0.1159	   0.0297	   0.0877	   0.0064	   0.0006	  -0.2243	   1.0303	   1.0536	   5.4139	   6.6082	   0.1169	
 -17.5000	-143.5000	   8.0000	  -0.3804	  -3.1196	   0.1739	   0.1322	  -0.6906	   0.7031	   0.0220	  -0.1151	   0.0332	   0.0870	   0.0065	   0.0007	  -0.2560	   0.8761	   0.9880	   5.0906	   6.5198	   0.1172	
 -15.0000	-143.5000	   8.0000	  -0.3261	  -3.1196	   0.1739	   0.2032	  -0.6603	   0.6909	   0.0339	  -0.1100	   0.0379	   0.0858	   0.0066	   0.0009	  -0.2738	   0.8218	   0.9440	   5.2118	   6.7898	   0.1152	
 -12.5000	-143.5000	   8.0000	  -0.2717	  -3.1196	   0.1739	   0.2811	  -0.6196	   0.6804	   0.0469	  -0.1033	   0.0429	   0.0838	   0.0067	   0.0010	  -0.2824	   0.8684	   0.9487	   6.0754	   7.0760	   0.1134	
 -10.0000	-143.5000	   8.0000	  -0.2174	  -3.1196	   0.1739	   0.3434	  -0.5911	   0.6836	   0.0572	  -0.0985	   0.0457	   0.0810	   0.0065	   0.0011	  -0.2869	   0.8279	   0.9359	   6.5501	   6.6932	   0.1139	
  -7.5000	-143.5000	   8.0000	  -0.1630	  -3.1196	   0.1739	   0.4001	  -0.5847	   0.7084	   0.0667	  -0.0974	   0.0484	   0.0792	   0.0065	   0.0011	  -0.2817	   0.7402	   0.9474	   6.1226	   6.4401	   0.1181	
  -5.0000	-143.5000	   8.0000	  -0.1087	  -3.1196	   0.1739	   0.4478	  -0.5995	   0.7483	   0.0746	  -0.0999	   0.0517	   0.0785	   0.0066	   0.0010	  -0.2552	   0.8727	   1.0410	   7.5926	   6.9327	   0.1247	
  -2.5000	-143.5000	   8.0000	  -0.0543	  -3.1196	   0.1739	   0.4743	  -0.6156	   0.7771	   0.0791	  -0.1026	   0.0538	   0.0780	   0.0067	   0.0010	  -0.2411	   0.9703	   1.1353	   8.5478	   7.6020	   0.1295	
   0.0000	-143.5000	   8.0000	   0.0000	  -3.1196	   0.1739	   0.4814	  -0.6316	   0.7942	   0.0802	  -0.1053	   0.0544	   0.0774	   0.0067	   0.0010	  -0.2344	   0.8800	   1.1382	   7.5383	   7.3823	   0.1324	
   2.5000	-143.5000	   8.0000	   0.0543	  -3.1196	   0.1739	   0.4731	  -0.6482	   0.8024	   0.0788	  -0.1080	   0.0546	   0.0760	   0.0066	   0.0010	  -0.2368	   0.8157	   1.0473	   7.4967	   6.7769	   0.1337	
   5.0000	-143.5000	   8.0000	   0.1087	  -3.1196	   0.1739	   0.4508	  -0.6578	   0.7975	   0.0751	  -0.1096	   0.0547	   0.0738	   0.0063	   0.0010	  -0.2466	   0.7447	   0.9366	   7.3841	   6.1786	   0.1329	
   7.5000	-143.5000	   8.0000	   0.1630	  -3.1196	   0.1739	   0.4342	  -0.6646	   0.7939	   0.0724	  -0.1108	   0.0543	   0.0705	   0.0059	   0.0007	  -0.1780	   0.7324	   1.0455	   7.8997	   6.2870	   0.1323	
  10.0000	-143.5000	   8.0000	   0.2174	  -3.1196	   0.1739	   0.4065	  -0.7073	   0.8159	   0.0678	  -0.1179	   0.0531	   0.0718	   0.0060	   0.0002	  -0.0493	   0.6174	   1.2631	   6.7885	   7.4347	   0.1360	
  12.5000	-143.5000	   8.0000	   0.2717	  -3.1196	   0.1739	   0.3564	  -0.7531	   0.8331	   0.0594	  -0.1255	   0.0520	   0.0751	   0.0063	  -0.0000	   0.0077	   0.4560	   1.4687	   4.7172	   8.8628	   0.1389	
  15.0000	-143.5000	   8.0000	   0.3261	  -3.1196	   0.1739	   0.3048	  -0.7700	   0.8281	   0.0508	  -0.1283	   0.0498	   0.0747	   0.0060	  -0.0001	   0.0178	   0.5385	   1.6538	   4.8928	  10.1699	   0.1380	
  17.5000	-143.5000	   8.0000	   0.3804	  -3.1196	   0.1739	   0.2527	  -0.7881	   0.8276	   0.0421	  -0.1314	   0.0454	   0.0749	   0.0058	  -0.0001	   0.0326	   0.6639	   1.8315	   4.8897	  11.3887	   0.1379	
  20.0000	-143.5000	   8.0000	   0.4348	  -3.1196	   0.1739	   0.2030	  -0.7902	   0.8159	   0.0338	  -0.1317	   0.0408	   0.0772	   0.0057	  -0.0001	   0.0468	   0.8096	   1.8757	   5.2579	  11.8376	   0.1360	
 -20.0000	-141.0000	   8.0000	  -0.4348	  -3.0652	   0.1739	   0.0909	  -0.7104	   0.7161	   0.0152	  -0.1184	   0.0297	   0.0880	   0.0065	   0.0006	  -0.2349	   0.9893	   1.0088	   5.0740	   6.2283	   0.1193	
 -17.5000	-141.0000	   8.0000	  -0.3804	  -3.0652	   0.1739	   0.1324	  -0.7045	   0.7168	   0.0221	  -0.1174	   0.0335	   0.0876	   0.0066	   0.0007	  -0.2558	   0.8511	   0.9670	   4.6703	   6.3032	   0.1195	
 -15.0000	-141.0000	   8.0000	  -0.3261	  -3.0652	   0.1739	   0.2021	  -0.6702	   0.7001	   0.0337	  -0.1117	   0.0382	   0.0861	   0.0066	   0.0009	  -0.2765	   0.7856	   0.8890	   4.6064	   6.1098	   0.1167	