Variables = "x [mm]"	"y [mm]"	"z [mm]"	"x/H"	"y/H"	"z/H"	"U [m/s]"	"W [m/s]"	"Length [m/s]"	"U/U<sub>ref</sub>"	"W/U<sub>ref</sub>"	"Std_U/U<sub>ref</sub>"	"Std_W/U<sub>ref</sub>"	"TKE/U<sub>ref</sub><sup>2</sup>"	"u'w'/U<sub>ref</sub><sup>2</sup> "	"Corr-coeff"	"Skew_U"	"Skew_W"	"Kurt_U"	"Kurt_W"	"Length/U<sub>ref</sub>"	
Zone T = "y=-142mm_16x32x32_MovingAvg3x3" I=65 J=40 F=POINT
 -80.0000	-142.0000	   2.5000	  -1.7391	  -3.0870	   0.0543	   0.0001	  -0.0000	   0.0001	   0.0000	  -0.0000	   0.0000	   0.0000	   0.0000	  -0.0000	   0.0000	   0.0002	  -0.0003	  -0.0002	  -0.0003	   0.0000	
 -77.5000	-142.0000	   2.5000	  -1.6848	  -3.0870	   0.0543	   0.0001	  -0.0000	   0.0001	   0.0000	  -0.0000	   0.0000	   0.0000	   0.0000	  -0.0000	   0.0000	   0.0002	  -0.0003	  -0.0002	  -0.0003	   0.0000	
 -75.0000	-142.0000	   2.5000	  -1.6304	  -3.0870	   0.0543	   0.0001	  -0.0000	   0.0001	   0.0000	  -0.0000	   0.0000	   0.0000	   0.0000	  -0.0000	   0.0000	   0.0002	  -0.0003	  -0.0003	  -0.0004	   0.0000	
 -72.5000	-142.0000	   2.5000	  -1.5761	  -3.0870	   0.0543	   0.0000	  -0.0000	   0.0001	   0.0000	  -0.0000	   0.0000	   0.0000	   0.0000	  -0.0000	   0.0001	   0.0002	  -0.0003	  -0.0003	  -0.0004	   0.0000	
 -70.0000	-142.0000	   2.5000	  -1.5217	  -3.0870	   0.0543	   0.0000	  -0.0000	   0.0001	   0.0000	  -0.0000	   0.0000	   0.0000	   0.0000	  -0.0000	   0.0001	   0.0002	  -0.0003	  -0.0004	  -0.0004	   0.0000	
 -67.5000	-142.0000	   2.5000	  -1.4674	  -3.0870	   0.0543	   0.0000	  -0.0000	   0.0001	   0.0000	  -0.0000	   0.0000	   0.0000	   0.0000	  -0.0000	   0.0001	   0.0002	  -0.0004	  -0.0004	  -0.0005	   0.0000	
 -65.0000	-142.0000	   2.5000	  -1.4130	  -3.0870	   0.0543	   0.0000	  -0.0000	   0.0001	   0.0000	  -0.0000	   0.0000	   0.0000	   0.0000	  -0.0000	   0.0001	   0.0002	  -0.0004	  -0.0005	  -0.0006	   0.0000	
 -62.5000	-142.0000	   2.5000	  -1.3587	  -3.0870	   0.0543	   0.0000	  -0.0000	   0.0001	   0.0000	  -0.0000	   0.0000	   0.0000	   0.0000	  -0.0000	   0.0001	   0.0002	  -0.0004	  -0.0006	  -0.0007	   0.0000	
 -60.0000	-142.0000	   2.5000	  -1.3043	  -3.0870	   0.0543	   0.0000	  -0.0000	   0.0001	   0.0000	  -0.0000	   0.0000	   0.0000	   0.0000	  -0.0000	   0.0001	   0.0003	  -0.0005	  -0.0006	  -0.0008	   0.0000	
 -57.5000	-142.0000	   2.5000	  -1.2500	  -3.0870	   0.0543	   0.0000	  -0.0000	   0.0001	   0.0000	  -0.0000	   0.0000	   0.0000	   0.0000	  -0.0000	   0.0001	   0.0003	  -0.0005	  -0.0008	  -0.0009	   0.0000	
 -55.0000	-142.0000	   2.5000	  -1.1957	  -3.0870	   0.0543	   0.0000	  -0.0001	   0.0001	   0.0000	  -0.0000	   0.0000	   0.0000	   0.0000	  -0.0000	   0.0001	   0.0003	  -0.0006	  -0.0009	  -0.0010	   0.0000	
 -52.5000	-142.0000	   2.5000	  -1.1413	  -3.0870	   0.0543	   0.0000	  -0.0001	   0.0001	   0.0000	  -0.0000	   0.0000	   0.0000	   0.0000	  -0.0000	   0.0001	   0.0004	  -0.0007	  -0.0011	  -0.0012	   0.0000	
 -50.0000	-142.0000	   2.5000	  -1.0870	  -3.0870	   0.0543	  -0.0000	  -0.0001	   0.0001	  -0.0000	  -0.0000	  -0.0000	   0.0000	   0.0000	  -0.0000	   0.0001	   0.0005	  -0.0008	  -0.0013	  -0.0015	   0.0000	
 -47.5000	-142.0000	   2.5000	  -1.0326	  -3.0870	   0.0543	  -0.0000	  -0.0001	   0.0001	  -0.0000	  -0.0000	  -0.0000	   0.0000	   0.0000	  -0.0000	   0.0002	   0.0005	  -0.0009	  -0.0016	  -0.0018	   0.0000	
 -45.0000	-142.0000	   2.5000	  -0.9783	  -3.0870	   0.0543	  -0.0000	  -0.0001	   0.0001	  -0.0000	  -0.0000	  -0.0000	   0.0000	   0.0000	  -0.0000	   0.0002	   0.0007	  -0.0011	  -0.0020	  -0.0022	   0.0000	
 -42.5000	-142.0000	   2.5000	  -0.9239	  -3.0870	   0.0543	  -0.0000	  -0.0001	   0.0001	  -0.0000	  -0.0000	  -0.0000	   0.0000	   0.0000	  -0.0000	   0.0002	   0.0008	  -0.0013	  -0.0026	  -0.0028	   0.0000	
 -40.0000	-142.0000	   2.5000	  -0.8696	  -3.0870	   0.0543	  -0.0000	  -0.0001	   0.0001	  -0.0000	  -0.0000	  -0.0000	   0.0000	  -0.0000	  -0.0000	   0.0003	   0.0011	  -0.0017	  -0.0036	  -0.0038	   0.0000	
 -37.5000	-142.0000	   2.5000	  -0.8152	  -3.0870	   0.0543	  -0.0001	  -0.0001	   0.0001	  -0.0000	  -0.0000	  -0.0000	   0.0000	  -0.0000	  -0.0000	   0.0004	   0.0014	  -0.0022	  -0.0046	  -0.0051	   0.0000	
 -35.0000	-142.0000	   2.5000	  -0.7609	  -3.0870	   0.0543	  -0.0001	  -0.0001	   0.0001	  -0.0000	  -0.0000	  -0.0000	   0.0000	  -0.0000	  -0.0000	   0.0006	   0.0022	  -0.0032	  -0.0083	  -0.0083	   0.0000	
 -32.5000	-142.0000	   2.5000	  -0.7065	  -3.0870	   0.0543	  -0.0001	  -0.0001	   0.0002	  -0.0000	  -0.0000	  -0.0000	   0.0000	  -0.0000	  -0.0000	   0.0009	   0.0035	  -0.0049	  -0.0135	  -0.0133	   0.0000	
 -30.0000	-142.0000	   2.5000	  -0.6522	  -3.0870	   0.0543	  -0.0003	   0.0002	   0.0006	  -0.0001	   0.0000	   0.0001	   0.0001	   0.0000	   0.0000	  -0.0001	   0.0007	  -0.0041	   0.0053	  -0.0074	   0.0001	
 -27.5000	-142.0000	   2.5000	  -0.5978	  -3.0870	   0.0543	   0.0021	  -0.0037	  -0.0040	   0.0003	  -0.0006	  -0.0012	  -0.0008	  -0.0000	  -0.0000	   0.0242	   0.0830	  -0.0714	  -0.4326	  -0.2720	  -0.0007	
 -25.0000	-142.0000	   2.5000	  -0.5435	  -3.0870	   0.0543	  -0.0117	   0.0199	   0.0233	  -0.0020	   0.0033	   0.0058	   0.0049	   0.0002	   0.0001	  -0.1095	  -0.3644	   0.2662	   1.9984	   1.1052	   0.0039	
 -22.5000	-142.0000	   2.5000	  -0.4891	  -3.0870	   0.0543	  -0.0907	   0.1146	   0.1474	  -0.0151	   0.0191	   0.0377	   0.0274	   0.0015	   0.0005	  -0.6142	  -1.9903	   1.5867	  10.7706	   6.8575	   0.0246	
 -20.0000	-142.0000	   2.5000	  -0.4348	  -3.0870	   0.0543	  -0.1286	   0.1425	   0.1927	  -0.0214	   0.0238	   0.0440	   0.0260	   0.0020	   0.0005	  -0.4383	  -0.9613	   0.9785	   5.9179	   5.2787	   0.0321	
 -17.5000	-142.0000	   2.5000	  -0.3804	  -3.0870	   0.0543	  -0.1740	   0.1984	   0.2657	  -0.0290	   0.0331	   0.0577	   0.0302	   0.0031	   0.0008	  -0.4921	  -0.5913	   0.8013	   4.4054	   4.5090	   0.0443	
 -15.0000	-142.0000	   2.5000	  -0.3261	  -3.0870	   0.0543	  -0.2126	   0.1966	   0.2901	  -0.0354	   0.0328	   0.0719	   0.0303	   0.0046	   0.0011	  -0.5371	  -0.5697	   0.8955	   3.8812	   4.8217	   0.0484	
 -12.5000	-142.0000	   2.5000	  -0.2717	  -3.0870	   0.0543	  -0.2412	   0.1915	   0.3084	  -0.0402	   0.0319	   0.0842	   0.0304	   0.0060	   0.0013	  -0.5331	  -0.5247	   1.0240	   3.3571	   5.3840	   0.0514	
 -10.0000	-142.0000	   2.5000	  -0.2174	  -3.0870	   0.0543	  -0.2676	   0.1873	   0.3267	  -0.0446	   0.0312	   0.0952	   0.0310	   0.0075	   0.0015	  -0.5230	  -0.4244	   1.1219	   2.9540	   5.3959	   0.0545	
  -7.5000	-142.0000	   2.5000	  -0.1630	  -3.0870	   0.0543	  -0.3306	   0.1885	   0.3807	  -0.0551	   0.0314	   0.1032	   0.0313	   0.0087	   0.0016	  -0.4975	  -0.3169	   1.1910	   2.7117	   5.4953	   0.0634	
  -5.0000	-142.0000	   2.5000	  -0.1087	  -3.0870	   0.0543	  -0.4202	   0.1758	   0.4555	  -0.0700	   0.0293	   0.1112	   0.0320	   0.0101	   0.0015	  -0.4211	  -0.2083	   1.1461	   2.5949	   5.3249	   0.0759	
  -2.5000	-142.0000	   2.5000	  -0.0543	  -3.0870	   0.0543	  -0.5087	   0.1598	   0.5334	  -0.0848	   0.0266	   0.1172	   0.0320	   0.0111	   0.0013	  -0.3464	  -0.1629	   0.7644	   2.6125	   4.2414	   0.0889	
   0.0000	-142.0000	   2.5000	   0.0000	  -3.0870	   0.0543	  -0.5661	   0.1404	   0.5835	  -0.0943	   0.0234	   0.1166	   0.0298	   0.0109	   0.0008	  -0.2433	  -0.1007	   0.4230	   2.6592	   4.2928	   0.0973	
   2.5000	-142.0000	   2.5000	   0.0543	  -3.0870	   0.0543	  -0.5951	   0.1121	   0.6063	  -0.0992	   0.0187	   0.1095	   0.0263	   0.0095	   0.0003	  -0.0925	  -0.0089	  -0.0170	   2.7742	   4.8069	   0.1010	
   5.0000	-142.0000	   2.5000	   0.1087	  -3.0870	   0.0543	  -0.5992	   0.0659	   0.6034	  -0.0999	   0.0110	   0.0985	   0.0252	   0.0077	  -0.0005	   0.1847	   0.0944	  -0.1671	   2.9379	   4.8773	   0.1006	
   7.5000	-142.0000	   2.5000	   0.1630	  -3.0870	   0.0543	  -0.5827	   0.0125	   0.5834	  -0.0971	   0.0021	   0.0871	   0.0267	   0.0062	  -0.0009	   0.3851	   0.1626	  -0.0273	   3.1718	   4.1649	   0.0972	
  10.0000	-142.0000	   2.5000	   0.2174	  -3.0870	   0.0543	  -0.5451	  -0.0403	   0.5467	  -0.0908	  -0.0067	   0.0763	   0.0288	   0.0050	  -0.0008	   0.3907	   0.1643	  -0.0139	   3.4515	   3.6294	   0.0911	
  12.5000	-142.0000	   2.5000	   0.2717	  -3.0870	   0.0543	  -0.4705	  -0.0810	   0.4775	  -0.0784	  -0.0135	   0.0658	   0.0284	   0.0038	  -0.0006	   0.3391	   0.1758	  -0.0369	   3.7817	   3.6195	   0.0796	
  15.0000	-142.0000	   2.5000	   0.3261	  -3.0870	   0.0543	  -0.3667	  -0.0965	   0.3788	  -0.0611	  -0.0161	   0.0561	   0.0257	   0.0029	  -0.0005	   0.3220	   0.1176	  -0.2976	   3.9165	   4.2716	   0.0631	
  17.5000	-142.0000	   2.5000	   0.3804	  -3.0870	   0.0543	  -0.2485	  -0.0763	   0.2585	  -0.0414	  -0.0127	   0.0428	   0.0227	   0.0018	  -0.0003	   0.3322	  -0.0047	  -0.4603	   4.2850	   4.2495	   0.0431	
  20.0000	-142.0000	   2.5000	   0.4348	  -3.0870	   0.0543	  -0.1831	  -0.0756	   0.1971	  -0.0305	  -0.0126	   0.0337	   0.0212	   0.0012	  -0.0003	   0.4483	  -0.5369	  -1.3855	   5.1605	   6.1671	   0.0328	
  22.5000	-142.0000	   2.5000	   0.4891	  -3.0870	   0.0543	  -0.1034	  -0.0721	   0.1252	  -0.0172	  -0.0120	   0.0260	   0.0201	   0.0009	  -0.0004	   0.5689	  -0.8521	  -1.1033	   5.0572	   4.2253	   0.0209	
  25.0000	-142.0000	   2.5000	   0.5435	  -3.0870	   0.0543	   0.0084	   0.0048	  -0.0101	   0.0014	   0.0008	  -0.0025	  -0.0015	  -0.0001	   0.0000	  -0.0592	   0.1029	   0.1323	  -0.4671	  -0.4595	  -0.0017	
  27.5000	-142.0000	   2.5000	   0.5978	  -3.0870	   0.0543	  -0.0018	  -0.0024	   0.0027	  -0.0003	  -0.0004	   0.0003	   0.0005	   0.0000	  -0.0000	   0.0070	  -0.0029	  -0.0046	   0.0754	   0.0278	   0.0004	
  30.0000	-142.0000	   2.5000	   0.6522	  -3.0870	   0.0543	   0.0003	  -0.0002	  -0.0003	   0.0000	  -0.0000	  -0.0001	  -0.0000	  -0.0000	   0.0000	  -0.0033	   0.0077	   0.0084	  -0.0248	  -0.0318	  -0.0000	
  32.5000	-142.0000	   2.5000	   0.7065	  -3.0870	   0.0543	  -0.0002	  -0.0005	   0.0004	  -0.0000	  -0.0001	   0.0000	   0.0001	   0.0000	  -0.0000	   0.0000	   0.0022	   0.0015	   0.0028	  -0.0061	   0.0001	
  35.0000	-142.0000	   2.5000	   0.7609	  -3.0870	   0.0543	  -0.0001	  -0.0003	   0.0002	  -0.0000	  -0.0001	  -0.0000	   0.0000	   0.0000	  -0.0000	  -0.0003	   0.0019	   0.0013	  -0.0017	  -0.0064	   0.0000	
  37.5000	-142.0000	   2.5000	   0.8152	  -3.0870	   0.0543	  -0.0001	  -0.0003	   0.0002	  -0.0000	  -0.0000	  -0.0000	   0.0000	   0.0000	  -0.0000	  -0.0001	   0.0013	   0.0006	  -0.0004	  -0.0040	   0.0000	
  40.0000	-142.0000	   2.5000	   0.8696	  -3.0870	   0.0543	  -0.0000	  -0.0002	   0.0001	  -0.0000	  -0.0000	  -0.0000	   0.0000	   0.0000	  -0.0000	  -0.0001	   0.0010	   0.0003	  -0.0004	  -0.0030	   0.0000	
  42.5000	-142.0000	   2.5000	   0.9239	  -3.0870	   0.0543	  -0.0000	  -0.0002	   0.0001	  -0.0000	  -0.0000	  -0.0000	   0.0000	   0.0000	  -0.0000	  -0.0001	   0.0008	   0.0002	  -0.0003	  -0.0023	   0.0000	
  45.0000	-142.0000	   2.5000	   0.9783	  -3.0870	   0.0543	  -0.0000	  -0.0002	   0.0001	  -0.0000	  -0.0000	  -0.0000	   0.0000	   0.0000	  -0.0000	  -0.0000	   0.0007	   0.0001	  -0.0003	  -0.0018	   0.0000	
  47.5000	-142.0000	   2.5000	   1.0326	  -3.0870	   0.0543	  -0.0000	  -0.0001	   0.0001	  -0.0000	  -0.0000	   0.0000	   0.0000	   0.0000	  -0.0000	  -0.0000	   0.0005	  -0.0000	  -0.0002	  -0.0015	   0.0000	
  50.0000	-142.0000	   2.5000	   1.0870	  -3.0870	   0.0543	   0.0000	  -0.0001	   0.0001	   0.0000	  -0.0000	   0.0000	   0.0000	   0.0000	  -0.0000	  -0.0000	   0.0005	  -0.0000	  -0.0002	  -0.0012	   0.0000	
  52.5000	-142.0000	   2.5000	   1.1413	  -3.0870	   0.0543	   0.0000	  -0.0001	   0.0001	   0.0000	  -0.0000	   0.0000	   0.0000	   0.0000	  -0.0000	  -0.0000	   0.0004	  -0.0001	  -0.0002	  -0.0010	   0.0000	
  55.0000	-142.0000	   2.5000	   1.1957	  -3.0870	   0.0543	   0.0000	  -0.0001	   0.0001	   0.0000	  -0.0000	   0.0000	   0.0000	   0.0000	  -0.0000	   0.0000	   0.0003	  -0.0001	  -0.0001	  -0.0008	   0.0000	
  57.5000	-142.0000	   2.5000	   1.2500	  -3.0870	   0.0543	   0.0000	  -0.0001	   0.0001	   0.0000	  -0.0000	   0.0000	   0.0000	   0.0000	  -0.0000	   0.0000	   0.0003	  -0.0001	  -0.0001	  -0.0007	   0.0000	
  60.0000	-142.0000	   2.5000	   1.3043	  -3.0870	   0.0543	   0.0000	  -0.0001	   0.0001	   0.0000	  -0.0000	   0.0000	   0.0000	   0.0000	  -0.0000	   0.0000	   0.0003	  -0.0001	  -0.0001	  -0.0006	   0.0000	
  62.5000	-142.0000	   2.5000	   1.3587	  -3.0870	   0.0543	   0.0000	  -0.0001	   0.0001	   0.0000	  -0.0000	   0.0000	   0.0000	   0.0000	  -0.0000	   0.0000	   0.0003	  -0.0001	  -0.0001	  -0.0005	   0.0000	
  65.0000	-142.0000	   2.5000	   1.4130	  -3.0870	   0.0543	   0.0000	  -0.0001	   0.0001	   0.0000	  -0.0000	   0.0000	   0.0000	   0.0000	  -0.0000	   0.0000	   0.0002	  -0.0001	  -0.0001	  -0.0005	   0.0000	
  67.5000	-142.0000	   2.5000	   1.4674	  -3.0870	   0.0543	   0.0000	  -0.0001	   0.0001	   0.0000	  -0.0000	   0.0000	   0.0000	   0.0000	  -0.0000	   0.0000	   0.0002	  -0.0001	  -0.0001	  -0.0004	   0.0000	
  70.0000	-142.0000	   2.5000	   1.5217	  -3.0870	   0.0543	   0.0000	  -0.0001	   0.0001	   0.0000	  -0.0000	   0.0000	   0.0000	   0.0000	  -0.0000	   0.0000	   0.0002	  -0.0001	  -0.0000	  -0.0004	   0.0000	
  72.5000	-142.0000	   2.5000	   1.5761	  -3.0870	   0.0543	   0.0000	  -0.0000	   0.0001	   0.0000	  -0.0000	   0.0000	   0.0000	   0.0000	  -0.0000	   0.0000	   0.0002	  -0.0001	  -0.0000	  -0.0003	   0.0000	
  75.0000	-142.0000	   2.5000	   1.6304	  -3.0870	   0.0543	   0.0000	  -0.0000	   0.0001	   0.0000	  -0.0000	   0.0000	   0.0000	   0.0000	  -0.0000	   0.0000	   0.0002	  -0.0001	  -0.0000	  -0.0003	   0.0000	
  77.5000	-142.0000	   2.5000	   1.6848	  -3.0870	   0.0543	   0.0001	  -0.0000	   0.0001	   0.0000	  -0.0000	   0.0000	   0.0000	   0.0000	  -0.0000	   0.0000	   0.0002	  -0.0001	  -0.0000	  -0.0003	   0.0000	
  80.0000	-142.0000	   2.5000	   1.7391	  -3.0870	   0.0543	   0.0001	  -0.0000	   0.0001	   0.0000	  -0.0000	   0.0000	   0.0000	   0.0000	  -0.0000	   0.0000	   0.0002	  -0.0001	   0.0000	  -0.0002	   0.0000	
 -80.0000	-142.0000	   5.0000	  -1.7391	  -3.0870	   0.1087	  -0.0000	   0.0000	  -0.0000	  -0.0000	   0.0000	  -0.0000	  -0.0000	  -0.0000	   0.0000	  -0.0000	  -0.0000	   0.0001	   0.0000	   0.0001	  -0.0000	
 -77.5000	-142.0000	   5.0000	  -1.6848	  -3.0870	   0.1087	  -0.0000	   0.0000	  -0.0000	  -0.0000	   0.0000	  -0.0000	  -0.0000	  -0.0000	   0.0000	  -0.0000	  -0.0000	   0.0001	   0.0001	   0.0001	  -0.0000	
 -75.0000	-142.0000	   5.0000	  -1.6304	  -3.0870	   0.1087	  -0.0000	   0.0000	  -0.0000	  -0.0000	   0.0000	  -0.0000	  -0.0000	  -0.0000	   0.0000	  -0.0000	  -0.0000	   0.0001	   0.0001	   0.0001	  -0.0000	
 -72.5000	-142.0000	   5.0000	  -1.5761	  -3.0870	   0.1087	  -0.0000	   0.0000	  -0.0000	  -0.0000	   0.0000	  -0.0000	  -0.0000	  -0.0000	   0.0000	  -0.0000	  -0.0000	   0.0001	   0.0001	   0.0001	  -0.0000	
 -70.0000	-142.0000	   5.0000	  -1.5217	  -3.0870	   0.1087	  -0.0000	   0.0000	  -0.0000	  -0.0000	   0.0000	  -0.0000	  -0.0000	  -0.0000	   0.0000	  -0.0000	  -0.0000	   0.0001	   0.0001	   0.0001	  -0.0000	
 -67.5000	-142.0000	   5.0000	  -1.4674	  -3.0870	   0.1087	  -0.0000	   0.0000	  -0.0000	  -0.0000	   0.0000	  -0.0000	  -0.0000	  -0.0000	   0.0000	  -0.0000	  -0.0000	   0.0001	   0.0001	   0.0001	  -0.0000	
 -65.0000	-142.0000	   5.0000	  -1.4130	  -3.0870	   0.1087	  -0.0000	   0.0000	  -0.0000	  -0.0000	   0.0000	  -0.0000	  -0.0000	  -0.0000	   0.0000	  -0.0000	  -0.0000	   0.0001	   0.0001	   0.0001	  -0.0000	
 -62.5000	-142.0000	   5.0000	  -1.3587	  -3.0870	   0.1087	  -0.0000	   0.0000	  -0.0000	  -0.0000	   0.0000	  -0.0000	  -0.0000	  -0.0000	   0.0000	  -0.0000	  -0.0001	   0.0001	   0.0001	   0.0001	  -0.0000	
 -60.0000	-142.0000	   5.0000	  -1.3043	  -3.0870	   0.1087	  -0.0000	   0.0000	  -0.0000	  -0.0000	   0.0000	  -0.0000	  -0.0000	  -0.0000	   0.0000	  -0.0000	  -0.0001	   0.0001	   0.0001	   0.0002	  -0.0000	
 -57.5000	-142.0000	   5.0000	  -1.2500	  -3.0870	   0.1087	  -0.0000	   0.0000	  -0.0000	  -0.0000	   0.0000	  -0.0000	  -0.0000	  -0.0000	   0.0000	  -0.0000	  -0.0001	   0.0001	   0.0002	   0.0002	  -0.0000	
 -55.0000	-142.0000	   5.0000	  -1.1957	  -3.0870	   0.1087	  -0.0000	   0.0000	  -0.0000	  -0.0000	   0.0000	  -0.0000	  -0.0000	  -0.0000	   0.0000	  -0.0000	  -0.0001	   0.0001	   0.0002	   0.0002	  -0.0000	
 -52.5000	-142.0000	   5.0000	  -1.1413	  -3.0870	   0.1087	  -0.0000	   0.0000	  -0.0000	  -0.0000	   0.0000	  -0.0000	  -0.0000	  -0.0000	   0.0000	  -0.0000	  -0.0001	   0.0001	   0.0002	   0.0003	  -0.0000	
 -50.0000	-142.0000	   5.0000	  -1.0870	  -3.0870	   0.1087	   0.0000	   0.0000	  -0.0000	   0.0000	   0.0000	  -0.0000	  -0.0000	  -0.0000	   0.0000	  -0.0000	  -0.0001	   0.0002	   0.0003	   0.0003	  -0.0000	
 -47.5000	-142.0000	   5.0000	  -1.0326	  -3.0870	   0.1087	   0.0000	   0.0000	  -0.0000	   0.0000	   0.0000	   0.0000	  -0.0000	  -0.0000	   0.0000	  -0.0000	  -0.0001	   0.0002	   0.0003	   0.0004	  -0.0000	
 -45.0000	-142.0000	   5.0000	  -0.9783	  -3.0870	   0.1087	   0.0000	   0.0000	  -0.0000	   0.0000	   0.0000	   0.0000	  -0.0000	  -0.0000	   0.0000	  -0.0000	  -0.0001	   0.0002	   0.0004	   0.0005	  -0.0000	
 -42.5000	-142.0000	   5.0000	  -0.9239	  -3.0870	   0.1087	   0.0000	   0.0000	  -0.0000	   0.0000	   0.0000	   0.0000	  -0.0000	  -0.0000	   0.0000	  -0.0001	  -0.0002	   0.0003	   0.0006	   0.0006	  -0.0000	
 -40.0000	-142.0000	   5.0000	  -0.8696	  -3.0870	   0.1087	   0.0000	   0.0000	  -0.0000	   0.0000	   0.0000	   0.0000	  -0.0000	  -0.0000	   0.0000	  -0.0001	  -0.0002	   0.0003	   0.0006	   0.0008	  -0.0000	
 -37.5000	-142.0000	   5.0000	  -0.8152	  -3.0870	   0.1087	   0.0000	   0.0000	  -0.0000	   0.0000	   0.0000	   0.0000	  -0.0000	   0.0000	   0.0000	  -0.0001	  -0.0004	   0.0005	   0.0015	   0.0013	  -0.0000	
 -35.0000	-142.0000	   5.0000	  -0.7609	  -3.0870	   0.1087	   0.0000	   0.0000	  -0.0001	   0.0000	   0.0000	  -0.0000	  -0.0000	  -0.0000	   0.0000	  -0.0001	  -0.0003	   0.0006	   0.0007	   0.0013	  -0.0000	
 -32.5000	-142.0000	   5.0000	  -0.7065	  -3.0870	   0.1087	   0.0000	   0.0000	  -0.0000	   0.0000	   0.0000	   0.0000	  -0.0000	   0.0000	   0.0000	  -0.0002	  -0.0007	   0.0011	   0.0027	   0.0029	  -0.0000	
 -30.0000	-142.0000	   5.0000	  -0.6522	  -3.0870	   0.1087	  -0.0002	   0.0005	   0.0005	  -0.0000	   0.0001	   0.0001	   0.0001	   0.0000	   0.0000	  -0.0023	  -0.0072	   0.0061	   0.0406	   0.0220	   0.0001	
 -27.5000	-142.0000	   5.0000	  -0.5978	  -3.0870	   0.1087	   0.0020	  -0.0045	  -0.0050	   0.0003	  -0.0007	  -0.0009	  -0.0011	  -0.0000	  -0.0000	   0.0159	   0.0447	  -0.0291	  -0.2817	  -0.1177	  -0.0008	
 -25.0000	-142.0000	   5.0000	  -0.5435	  -3.0870	   0.1087	  -0.0127	   0.0282	   0.0307	  -0.0021	   0.0047	   0.0061	   0.0066	   0.0003	   0.0001	  -0.1041	  -0.2996	   0.2041	   1.8431	   0.8024	   0.0051	
 -22.5000	-142.0000	   5.0000	  -0.4891	  -3.0870	   0.1087	  -0.0926	   0.1787	   0.2012	  -0.0154	   0.0298	   0.0386	   0.0383	   0.0021	   0.0007	  -0.5587	  -1.3880	   0.9069	   8.6813	   4.2478	   0.0335	
 -20.0000	-142.0000	   5.0000	  -0.4348	  -3.0870	   0.1087	  -0.1280	   0.1923	   0.2320	  -0.0213	   0.0320	   0.0464	   0.0363	   0.0027	   0.0008	  -0.4657	  -0.7006	   0.5015	   4.9465	   3.7574	   0.0387	
 -17.5000	-142.0000	   5.0000	  -0.3804	  -3.0870	   0.1087	  -0.1675	   0.2027	   0.2657	  -0.0279	   0.0338	   0.0587	   0.0383	   0.0037	   0.0012	  -0.5074	  -0.6478	   0.5800	   4.5694	   4.1887	   0.0443	
 -15.0000	-142.0000	   5.0000	  -0.3261	  -3.0870	   0.1087	  -0.2068	   0.2199	   0.3047	  -0.0345	   0.0366	   0.0723	   0.0390	   0.0051	   0.0015	  -0.5397	  -0.5757	   0.5469	   3.8599	   4.1797	   0.0508	
 -12.5000	-142.0000	   5.0000	  -0.2717	  -3.0870	   0.1087	  -0.2344	   0.2180	   0.3228	  -0.0391	   0.0363	   0.0843	   0.0384	   0.0064	   0.0018	  -0.5541	  -0.5455	   0.6644	   3.4289	   4.5726	   0.0538	
 -10.0000	-142.0000	   5.0000	  -0.2174	  -3.0870	   0.1087	  -0.2570	   0.2100	   0.3330	  -0.0428	   0.0350	   0.0973	   0.0387	   0.0082	   0.0021	  -0.5533	  -0.4145	   0.7888	   2.9499	   4.6094	   0.0555	
  -7.5000	-142.0000	   5.0000	  -0.1630	  -3.0870	   0.1087	  -0.3230	   0.2095	   0.3856	  -0.0538	   0.0349	   0.1036	   0.0386	   0.0092	   0.0021	  -0.5133	  -0.3074	   0.8898	   2.7413	   4.6910	   0.0643	
  -5.0000	-142.0000	   5.0000	  -0.1087	  -3.0870	   0.1087	  -0.3954	   0.1895	   0.4393	  -0.0659	   0.0316	   0.1091	   0.0383	   0.0100	   0.0017	  -0.4062	  -0.1904	   0.7483	   2.6516	   4.1942	   0.0732	
  -2.5000	-142.0000	   5.0000	  -0.0543	  -3.0870	   0.1087	  -0.4606	   0.1577	   0.4877	  -0.0768	   0.0263	   0.1133	   0.0381	   0.0107	   0.0013	  -0.2957	  -0.1245	   0.4257	   2.6885	   3.8834	   0.0813	
   0.0000	-142.0000	   5.0000	   0.0000	  -3.0870	   0.1087	  -0.5059	   0.1254	   0.5214	  -0.0843	   0.0209	   0.1107	   0.0368	   0.0102	   0.0007	  -0.1637	  -0.0618	   0.1182	   2.7657	   4.2151	   0.0869	
   2.5000	-142.0000	   5.0000	   0.0543	  -3.0870	   0.1087	  -0.5358	   0.0797	   0.5414	  -0.0893	   0.0133	   0.1050	   0.0349	   0.0092	  -0.0000	   0.0034	  -0.0138	  -0.2918	   2.9004	   5.1242	   0.0902	
   5.0000	-142.0000	   5.0000	   0.1087	  -3.0870	   0.1087	  -0.5471	   0.0190	   0.5465	  -0.0912	   0.0032	   0.0965	   0.0361	   0.0080	  -0.0009	   0.2574	   0.0483	  -0.5419	   2.9673	   4.9778	   0.0911	
   7.5000	-142.0000	   5.0000	   0.1630	  -3.0870	   0.1087	  -0.5345	  -0.0487	   0.5362	  -0.0891	  -0.0081	   0.0856	   0.0388	   0.0066	  -0.0014	   0.4224	   0.1364	  -0.4483	   3.2106	   4.1646	   0.0894	
  10.0000	-142.0000	   5.0000	   0.2174	  -3.0870	   0.1087	  -0.5032	  -0.1244	   0.5179	  -0.0839	  -0.0207	   0.0759	   0.0411	   0.0056	  -0.0014	   0.4256	   0.1783	  -0.3275	   3.4864	   3.6774	   0.0863	
  12.5000	-142.0000	   5.0000	   0.2717	  -3.0870	   0.1087	  -0.4387	  -0.1886	   0.4773	  -0.0731	  -0.0314	   0.0661	   0.0418	   0.0046	  -0.0012	   0.4086	   0.2187	  -0.3445	   3.7633	   3.5930	   0.0796	
  15.0000	-142.0000	   5.0000	   0.3261	  -3.0870	   0.1087	  -0.3537	  -0.2290	   0.4224	  -0.0590	  -0.0382	   0.0566	   0.0408	   0.0037	  -0.0010	   0.4251	   0.1809	  -0.4843	   3.8563	   3.7620	   0.0704	
  17.5000	-142.0000	   5.0000	   0.3804	  -3.0870	   0.1087	  -0.2575	  -0.2158	   0.3387	  -0.0429	  -0.0360	   0.0439	   0.0367	   0.0025	  -0.0007	   0.4372	   0.0467	  -0.5418	   4.1040	   3.8967	   0.0565	
  20.0000	-142.0000	   5.0000	   0.4348	  -3.0870	   0.1087	  -0.1954	  -0.2079	   0.2882	  -0.0326	  -0.0346	   0.0368	   0.0380	   0.0021	  -0.0006	   0.4749	  -0.0858	  -0.4874	   4.5286	   3.4819	   0.0480	
  22.5000	-142.0000	   5.0000	   0.4891	  -3.0870	   0.1087	  -0.1196	  -0.1429	   0.1865	  -0.0199	  -0.0238	   0.0243	   0.0294	   0.0012	  -0.0004	   0.4683	  -0.2308	  -0.4215	   4.9757	   2.7662	   0.0311	
  25.0000	-142.0000	   5.0000	   0.5435	  -3.0870	   0.1087	   0.0084	   0.0121	  -0.0148	   0.0014	   0.0020	  -0.0019	  -0.0024	  -0.0001	   0.0000	  -0.0388	   0.0259	   0.0432	  -0.4003	  -0.2321	  -0.0025	
  27.5000	-142.0000	   5.0000	   0.5978	  -3.0870	   0.1087	  -0.0021	  -0.0029	   0.0038	  -0.0003	  -0.0005	   0.0005	   0.0006	   0.0000	  -0.0000	   0.0113	  -0.0112	  -0.0172	   0.1106	   0.0775	   0.0006	
  30.0000	-142.0000	   5.0000	   0.6522	  -3.0870	   0.1087	   0.0005	   0.0009	  -0.0010	   0.0001	   0.0002	  -0.0001	  -0.0002	  -0.0000	   0.0000	  -0.0023	   0.0009	   0.0022	  -0.0254	  -0.0126	  -0.0002	
  32.5000	-142.0000	   5.0000	   0.7065	  -3.0870	   0.1087	  -0.0001	  -0.0001	   0.0002	  -0.0000	  -0.0000	   0.0000	   0.0000	   0.0000	  -0.0000	   0.0007	  -0.0010	  -0.0012	   0.0061	   0.0056	   0.0000	
  35.0000	-142.0000	   5.0000	   0.7609	  -3.0870	   0.1087	   0.0000	   0.0001	  -0.0001	   0.0000	   0.0000	  -0.0000	  -0.0000	  -0.0000	   0.0000	  -0.0001	  -0.0003	  -0.0001	  -0.0009	   0.0005	  -0.0000	
  37.5000	-142.0000	   5.0000	   0.8152	  -3.0870	   0.1087	   0.0000	   0.0000	  -0.0000	   0.0000	   0.0000	   0.0000	  -0.0000	  -0.0000	   0.0000	   0.0001	  -0.0003	  -0.0002	   0.0003	   0.0010	  -0.0000	
  40.0000	-142.0000	   5.0000	   0.8696	  -3.0870	   0.1087	   0.0000	   0.0000	  -0.0000	   0.0000	   0.0000	   0.0000	  -0.0000	  -0.0000	   0.0000	   0.0000	  -0.0002	  -0.0001	   0.0001	   0.0006	  -0.0000	
  42.5000	-142.0000	   5.0000	   0.9239	  -3.0870	   0.1087	   0.0000	   0.0000	  -0.0000	   0.0000	   0.0000	   0.0000	  -0.0000	  -0.0000	   0.0000	   0.0000	  -0.0002	  -0.0000	   0.0001	   0.0005	  -0.0000	
  45.0000	-142.0000	   5.0000	   0.9783	  -3.0870	   0.1087	   0.0000	   0.0000	  -0.0000	   0.0000	   0.0000	   0.0000	  -0.0000	  -0.0000	   0.0000	   0.0000	  -0.0001	  -0.0000	   0.0001	   0.0004	  -0.0000	
  47.5000	-142.0000	   5.0000	   1.0326	  -3.0870	   0.1087	   0.0000	   0.0000	  -0.0000	   0.0000	   0.0000	  -0.0000	  -0.0000	  -0.0000	   0.0000	   0.0000	  -0.0001	   0.0000	   0.0000	   0.0003	  -0.0000	
  50.0000	-142.0000	   5.0000	   1.0870	  -3.0870	   0.1087	  -0.0000	   0.0000	  -0.0000	  -0.0000	   0.0000	  -0.0000	  -0.0000	  -0.0000	   0.0000	   0.0000	  -0.0001	   0.0000	   0.0000	   0.0003	  -0.0000	
  52.5000	-142.0000	   5.0000	   1.1413	  -3.0870	   0.1087	  -0.0000	   0.0000	  -0.0000	  -0.0000	   0.0000	  -0.0000	  -0.0000	  -0.0000	   0.0000	   0.0000	  -0.0001	   0.0000	   0.0000	   0.0002	  -0.0000	
  55.0000	-142.0000	   5.0000	   1.1957	  -3.0870	   0.1087	  -0.0000	   0.0000	  -0.0000	  -0.0000	   0.0000	  -0.0000	  -0.0000	  -0.0000	   0.0000	  -0.0000	  -0.0001	   0.0000	   0.0000	   0.0002	  -0.0000	
  57.5000	-142.0000	   5.0000	   1.2500	  -3.0870	   0.1087	  -0.0000	   0.0000	  -0.0000	  -0.0000	   0.0000	  -0.0000	  -0.0000	  -0.0000	   0.0000	  -0.0000	  -0.0001	   0.0000	   0.0000	   0.0001	  -0.0000	
  60.0000	-142.0000	   5.0000	   1.3043	  -3.0870	   0.1087	  -0.0000	   0.0000	  -0.0000	  -0.0000	   0.0000	  -0.0000	  -0.0000	  -0.0000	   0.0000	  -0.0000	  -0.0001	   0.0000	   0.0000	   0.0001	  -0.0000	
  62.5000	-142.0000	   5.0000	   1.3587	  -3.0870	   0.1087	  -0.0000	   0.0000	  -0.0000	  -0.0000	   0.0000	  -0.0000	  -0.0000	  -0.0000	   0.0000	  -0.0000	  -0.0001	   0.0000	   0.0000	   0.0001	  -0.0000	
  65.0000	-142.0000	   5.0000	   1.4130	  -3.0870	   0.1087	  -0.0000	   0.0000	  -0.0000	  -0.0000	   0.0000	  -0.0000	  -0.0000	  -0.0000	   0.0000	  -0.0000	  -0.0001	   0.0000	   0.0000	   0.0001	  -0.0000	
  67.5000	-142.0000	   5.0000	   1.4674	  -3.0870	   0.1087	  -0.0000	   0.0000	  -0.0000	  -0.0000	   0.0000	  -0.0000	  -0.0000	  -0.0000	   0.0000	  -0.0000	  -0.0000	   0.0000	   0.0000	   0.0001	  -0.0000	
  70.0000	-142.0000	   5.0000	   1.5217	  -3.0870	   0.1087	  -0.0000	   0.0000	  -0.0000	  -0.0000	   0.0000	  -0.0000	  -0.0000	  -0.0000	   0.0000	  -0.0000	  -0.0000	   0.0000	   0.0000	   0.0001	  -0.0000	
  72.5000	-142.0000	   5.0000	   1.5761	  -3.0870	   0.1087	  -0.0000	   0.0000	  -0.0000	  -0.0000	   0.0000	  -0.0000	  -0.0000	  -0.0000	   0.0000	  -0.0000	  -0.0000	   0.0000	   0.0000	   0.0001	  -0.0000	
  75.0000	-142.0000	   5.0000	   1.6304	  -3.0870	   0.1087	  -0.0000	   0.0000	  -0.0000	  -0.0000	   0.0000	  -0.0000	  -0.0000	  -0.0000	   0.0000	  -0.0000	  -0.0000	   0.0000	   0.0000	   0.0001	  -0.0000	
  77.5000	-142.0000	   5.0000	   1.6848	  -3.0870	   0.1087	  -0.0000	   0.0000	  -0.0000	  -0.0000	   0.0000	  -0.0000	  -0.0000	  -0.0000	   0.0000	  -0.0000	  -0.0000	   0.0000	   0.0000	   0.0001	  -0.0000	
  80.0000	-142.0000	   5.0000	   1.7391	  -3.0870	   0.1087	  -0.0000	   0.0000	  -0.0000	  -0.0000	   0.0000	  -0.0000	  -0.0000	  -0.0000	   0.0000	  -0.0000	  -0.0000	   0.0000	  -0.0000	   0.0000	  -0.0000	
 -80.0000	-142.0000	   7.5000	  -1.7391	  -3.0870	   0.1630	   0.0000	  -0.0000	   0.0000	   0.0000	  -0.0000	   0.0000	   0.0000	   0.0000	  -0.0000	   0.0000	   0.0000	  -0.0000	  -0.0000	  -0.0000	   0.0000	
 -77.5000	-142.0000	   7.5000	  -1.6848	  -3.0870	   0.1630	   0.0000	  -0.0000	   0.0000	   0.0000	  -0.0000	   0.0000	   0.0000	   0.0000	  -0.0000	   0.0000	   0.0000	  -0.0000	  -0.0000	  -0.0000	   0.0000	
 -75.0000	-142.0000	   7.5000	  -1.6304	  -3.0870	   0.1630	   0.0000	  -0.0000	   0.0000	   0.0000	  -0.0000	   0.0000	   0.0000	   0.0000	  -0.0000	   0.0000	   0.0000	  -0.0000	  -0.0000	  -0.0000	   0.0000	
 -72.5000	-142.0000	   7.5000	  -1.5761	  -3.0870	   0.1630	   0.0000	  -0.0000	   0.0000	   0.0000	  -0.0000	   0.0000	   0.0000	   0.0000	  -0.0000	   0.0000	   0.0000	  -0.0000	  -0.0000	  -0.0000	   0.0000	
 -70.0000	-142.0000	   7.5000	  -1.5217	  -3.0870	   0.1630	   0.0000	  -0.0000	   0.0000	   0.0000	  -0.0000	   0.0000	   0.0000	   0.0000	  -0.0000	   0.0000	   0.0000	  -0.0000	  -0.0000	  -0.0000	   0.0000	
 -67.5000	-142.0000	   7.5000	  -1.4674	  -3.0870	   0.1630	   0.0000	  -0.0000	   0.0000	   0.0000	  -0.0000	   0.0000	   0.0000	   0.0000	  -0.0000	   0.0000	   0.0000	  -0.0000	  -0.0000	  -0.0000	   0.0000	
 -65.0000	-142.0000	   7.5000	  -1.4130	  -3.0870	   0.1630	   0.0000	  -0.0000	   0.0000	   0.0000	  -0.0000	   0.0000	   0.0000	   0.0000	  -0.0000	   0.0000	   0.0000	  -0.0000	  -0.0000	  -0.0000	   0.0000	
 -62.5000	-142.0000	   7.5000	  -1.3587	  -3.0870	   0.1630	   0.0000	  -0.0000	   0.0000	   0.0000	  -0.0000	   0.0000	   0.0000	   0.0000	  -0.0000	   0.0000	   0.0000	  -0.0000	  -0.0000	  -0.0000	   0.0000	
 -60.0000	-142.0000	   7.5000	  -1.3043	  -3.0870	   0.1630	   0.0000	  -0.0000	   0.0000	   0.0000	  -0.0000	   0.0000	   0.0000	   0.0000	  -0.0000	   0.0000	   0.0000	  -0.0000	  -0.0000	  -0.0000	   0.0000	