Variables = "x [mm]"	"y [mm]"	"z [mm]"	"x/H"	"y/H"	"z/H"	"U [m/s]"	"W [m/s]"	"Length [m/s]"	"U/U<sub>ref</sub>"	"W/U<sub>ref</sub>"	"Std_U/U<sub>ref</sub>"	"Std_W/U<sub>ref</sub>"	"TKE/U<sub>ref</sub><sup>2</sup>"	"u'w'/U<sub>ref</sub><sup>2</sup> "	"Corr-coeff"	"Skew_U"	"Skew_W"	"Kurt_U"	"Kurt_W"	"Length/U<sub>ref</sub>"	
Zone T = "y=87mm_16x32x32_MovingAvg5x5" I=65 J=40 F=POINT
 -80.0000	  87.0000	   2.5000	  -1.7391	   1.8913	   0.0543	  -0.0000	  -0.0000	   0.0002	  -0.0000	  -0.0000	   0.0000	   0.0000	   0.0000	   0.0000	  -0.0001	   0.0007	   0.0001	  -0.0021	  -0.0020	   0.0000	
 -77.5000	  87.0000	   2.5000	  -1.6848	   1.8913	   0.0543	  -0.0000	  -0.0000	   0.0002	  -0.0000	  -0.0000	   0.0000	   0.0000	   0.0000	   0.0000	  -0.0001	   0.0007	   0.0001	  -0.0021	  -0.0020	   0.0000	
 -75.0000	  87.0000	   2.5000	  -1.6304	   1.8913	   0.0543	  -0.0000	  -0.0000	   0.0001	  -0.0000	  -0.0000	   0.0000	   0.0000	   0.0000	   0.0000	  -0.0001	   0.0007	   0.0001	  -0.0022	  -0.0021	   0.0000	
 -72.5000	  87.0000	   2.5000	  -1.5761	   1.8913	   0.0543	  -0.0000	  -0.0000	   0.0001	  -0.0000	  -0.0000	   0.0000	   0.0000	   0.0000	   0.0000	  -0.0001	   0.0007	   0.0001	  -0.0023	  -0.0021	   0.0000	
 -70.0000	  87.0000	   2.5000	  -1.5217	   1.8913	   0.0543	  -0.0001	  -0.0000	   0.0001	  -0.0000	  -0.0000	   0.0000	   0.0000	   0.0000	   0.0000	  -0.0001	   0.0007	   0.0001	  -0.0024	  -0.0022	   0.0000	
 -67.5000	  87.0000	   2.5000	  -1.4674	   1.8913	   0.0543	  -0.0001	  -0.0000	   0.0001	  -0.0000	  -0.0000	   0.0000	   0.0000	   0.0000	   0.0000	  -0.0001	   0.0008	   0.0002	  -0.0025	  -0.0024	   0.0000	
 -65.0000	  87.0000	   2.5000	  -1.4130	   1.8913	   0.0543	  -0.0001	  -0.0000	   0.0001	  -0.0000	  -0.0000	   0.0000	   0.0000	   0.0000	   0.0000	  -0.0001	   0.0008	   0.0002	  -0.0027	  -0.0025	   0.0000	
 -62.5000	  87.0000	   2.5000	  -1.3587	   1.8913	   0.0543	  -0.0001	  -0.0000	   0.0002	  -0.0000	  -0.0000	   0.0000	   0.0000	   0.0000	   0.0000	  -0.0001	   0.0009	   0.0002	  -0.0030	  -0.0028	   0.0000	
 -60.0000	  87.0000	   2.5000	  -1.3043	   1.8913	   0.0543	  -0.0001	  -0.0000	   0.0002	  -0.0000	  -0.0000	   0.0000	   0.0000	   0.0000	   0.0000	  -0.0001	   0.0010	   0.0002	  -0.0034	  -0.0031	   0.0000	
 -57.5000	  87.0000	   2.5000	  -1.2500	   1.8913	   0.0543	  -0.0001	  -0.0000	   0.0002	  -0.0000	  -0.0000	   0.0000	   0.0000	   0.0000	   0.0000	  -0.0001	   0.0011	   0.0002	  -0.0038	  -0.0035	   0.0000	
 -55.0000	  87.0000	   2.5000	  -1.1957	   1.8913	   0.0543	  -0.0001	  -0.0001	   0.0002	  -0.0000	  -0.0000	   0.0000	   0.0000	   0.0000	   0.0000	  -0.0001	   0.0012	   0.0003	  -0.0043	  -0.0039	   0.0000	
 -52.5000	  87.0000	   2.5000	  -1.1413	   1.8913	   0.0543	  -0.0001	  -0.0001	   0.0002	  -0.0000	  -0.0000	   0.0000	   0.0000	   0.0000	   0.0000	  -0.0001	   0.0014	   0.0003	  -0.0048	  -0.0044	   0.0000	
 -50.0000	  87.0000	   2.5000	  -1.0870	   1.8913	   0.0543	  -0.0002	  -0.0001	   0.0002	  -0.0000	  -0.0000	   0.0000	   0.0000	   0.0000	   0.0000	  -0.0001	   0.0015	   0.0003	  -0.0054	  -0.0049	   0.0000	
 -47.5000	  87.0000	   2.5000	  -1.0326	   1.8913	   0.0543	  -0.0002	  -0.0001	   0.0002	  -0.0000	  -0.0000	   0.0000	   0.0000	   0.0000	   0.0000	  -0.0001	   0.0016	   0.0003	  -0.0060	  -0.0054	   0.0000	
 -45.0000	  87.0000	   2.5000	  -0.9783	   1.8913	   0.0543	  -0.0002	  -0.0001	   0.0003	  -0.0000	  -0.0000	   0.0000	   0.0000	   0.0000	   0.0000	  -0.0001	   0.0018	   0.0003	  -0.0068	  -0.0060	   0.0000	
 -42.5000	  87.0000	   2.5000	  -0.9239	   1.8913	   0.0543	  -0.0002	  -0.0001	   0.0003	  -0.0000	  -0.0000	   0.0000	   0.0000	   0.0000	   0.0000	  -0.0001	   0.0021	   0.0004	  -0.0079	  -0.0070	   0.0000	
 -40.0000	  87.0000	   2.5000	  -0.8696	   1.8913	   0.0543	  -0.0003	  -0.0001	   0.0003	  -0.0000	  -0.0000	   0.0000	   0.0000	   0.0000	   0.0000	  -0.0001	   0.0024	   0.0004	  -0.0093	  -0.0082	   0.0001	
 -37.5000	  87.0000	   2.5000	  -0.8152	   1.8913	   0.0543	  -0.0003	  -0.0001	   0.0004	  -0.0001	  -0.0000	   0.0000	   0.0000	   0.0000	   0.0000	  -0.0000	   0.0030	   0.0004	  -0.0116	  -0.0101	   0.0001	
 -35.0000	  87.0000	   2.5000	  -0.7609	   1.8913	   0.0543	  -0.0004	  -0.0001	   0.0004	  -0.0001	  -0.0000	   0.0000	   0.0000	   0.0000	   0.0000	   0.0000	   0.0036	   0.0005	  -0.0143	  -0.0122	   0.0001	
 -32.5000	  87.0000	   2.5000	  -0.7065	   1.8913	   0.0543	  -0.0006	  -0.0002	   0.0005	  -0.0001	  -0.0000	   0.0000	   0.0000	   0.0000	   0.0000	   0.0002	   0.0049	   0.0004	  -0.0201	  -0.0180	   0.0001	
 -30.0000	  87.0000	   2.5000	  -0.6522	   1.8913	   0.0543	  -0.0007	  -0.0002	   0.0007	  -0.0001	  -0.0000	   0.0001	   0.0001	   0.0000	   0.0000	   0.0004	   0.0062	   0.0003	  -0.0255	  -0.0219	   0.0001	
 -27.5000	  87.0000	   2.5000	  -0.5978	   1.8913	   0.0543	  -0.0011	  -0.0003	   0.0009	  -0.0002	  -0.0000	   0.0001	   0.0001	   0.0000	   0.0000	   0.0009	   0.0049	  -0.0004	  -0.0206	  -0.0085	   0.0002	
 -25.0000	  87.0000	   2.5000	  -0.5435	   1.8913	   0.0543	  -0.0013	  -0.0018	  -0.0003	  -0.0002	  -0.0003	  -0.0005	  -0.0000	  -0.0000	  -0.0000	   0.0102	   0.0732	  -0.0000	  -0.3011	  -0.4064	  -0.0000	
 -22.5000	  87.0000	   2.5000	  -0.4891	   1.8913	   0.0543	  -0.0029	   0.0063	   0.0093	  -0.0005	   0.0010	   0.0041	   0.0011	   0.0001	   0.0000	  -0.0483	  -0.3326	  -0.0430	   1.2913	   1.9924	   0.0015	
 -20.0000	  87.0000	   2.5000	  -0.4348	   1.8913	   0.0543	  -0.0147	   0.0531	   0.0621	  -0.0025	   0.0088	   0.0243	   0.0073	   0.0005	   0.0000	  -0.2183	  -2.1459	  -0.1431	   9.3828	   9.3042	   0.0103	
 -17.5000	  87.0000	   2.5000	  -0.3804	   1.8913	   0.0543	  -0.0558	   0.0631	   0.0914	  -0.0093	   0.0105	   0.0238	   0.0094	   0.0005	   0.0000	  -0.0323	  -1.9584	   0.3104	  11.6225	   6.3623	   0.0152	
 -15.0000	  87.0000	   2.5000	  -0.3261	   1.8913	   0.0543	  -0.1157	   0.0584	   0.1319	  -0.0193	   0.0097	   0.0305	   0.0112	   0.0008	   0.0001	  -0.1804	  -1.8770	   0.5090	  10.8195	   9.1985	   0.0220	
 -12.5000	  87.0000	   2.5000	  -0.2717	   1.8913	   0.0543	  -0.1742	   0.0427	   0.1803	  -0.0290	   0.0071	   0.0364	   0.0119	   0.0011	   0.0001	  -0.1632	  -1.8014	  -0.0141	   8.2652	   7.0114	   0.0301	
 -10.0000	  87.0000	   2.5000	  -0.2174	   1.8913	   0.0543	  -0.2522	   0.0375	   0.2554	  -0.0420	   0.0062	   0.0353	   0.0113	   0.0011	   0.0000	  -0.0685	  -1.9969	  -0.9999	  10.9513	  11.5743	   0.0426	
  -7.5000	  87.0000	   2.5000	  -0.1630	   1.8913	   0.0543	  -0.2761	   0.0325	   0.2789	  -0.0460	   0.0054	   0.0439	   0.0132	   0.0016	  -0.0001	   0.1826	  -1.4091	  -1.0270	   6.7591	   6.5849	   0.0465	
  -5.0000	  87.0000	   2.5000	  -0.1087	   1.8913	   0.0543	  -0.2965	   0.0113	   0.2973	  -0.0494	   0.0019	   0.0499	   0.0141	   0.0020	  -0.0002	   0.2841	  -1.2610	  -1.0272	   5.4092	   5.2624	   0.0495	
  -2.5000	  87.0000	   2.5000	  -0.0543	   1.8913	   0.0543	  -0.3193	  -0.0097	   0.3200	  -0.0532	  -0.0016	   0.0503	   0.0142	   0.0020	  -0.0002	   0.3395	  -1.4044	  -1.1687	   5.7811	   5.2305	   0.0533	
   0.0000	  87.0000	   2.5000	   0.0000	   1.8913	   0.0543	  -0.3201	  -0.0228	   0.3211	  -0.0534	  -0.0038	   0.0450	   0.0128	   0.0016	  -0.0002	   0.3976	  -1.5612	  -1.1625	   7.0645	   5.3134	   0.0535	
   2.5000	  87.0000	   2.5000	   0.0543	   1.8913	   0.0543	  -0.2954	  -0.0273	   0.2966	  -0.0492	  -0.0045	   0.0411	   0.0119	   0.0014	  -0.0002	   0.4030	  -1.3076	  -1.0867	   6.2684	   5.3927	   0.0494	
   5.0000	  87.0000	   2.5000	   0.1087	   1.8913	   0.0543	  -0.2288	  -0.0446	   0.2331	  -0.0381	  -0.0074	   0.0329	   0.0120	   0.0009	  -0.0001	   0.4154	  -1.2688	  -0.6193	   5.4607	   4.7937	   0.0388	
   7.5000	  87.0000	   2.5000	   0.1630	   1.8913	   0.0543	  -0.1747	  -0.0821	   0.1927	  -0.0291	  -0.0137	   0.0269	   0.0138	   0.0007	  -0.0001	   0.4095	  -1.5056	   0.6435	   6.7458	   4.6204	   0.0321	
  10.0000	  87.0000	   2.5000	   0.2174	   1.8913	   0.0543	  -0.1818	  -0.0991	   0.2076	  -0.0303	  -0.0165	   0.0264	   0.0125	   0.0006	  -0.0001	   0.3952	  -1.1236	   0.1575	   5.5742	   5.6823	   0.0346	
  12.5000	  87.0000	   2.5000	   0.2717	   1.8913	   0.0543	  -0.2573	  -0.1089	   0.2764	  -0.0429	  -0.0181	   0.0268	   0.0121	   0.0006	  -0.0001	   0.2471	   0.0796	   0.4193	   4.2754	   3.2567	   0.0461	
  15.0000	  87.0000	   2.5000	   0.3261	   1.8913	   0.0543	  -0.1178	  -0.1209	   0.1812	  -0.0196	  -0.0201	   0.0283	   0.0135	   0.0007	  -0.0000	   0.1445	  -0.2924	   0.7257	   2.5994	   2.0964	   0.0302	
  17.5000	  87.0000	   2.5000	   0.3804	   1.8913	   0.0543	  -0.0688	  -0.1303	   0.1473	  -0.0115	  -0.0217	   0.0166	   0.0094	   0.0003	  -0.0000	   0.1898	   1.0709	   2.0822	   9.5391	  10.7133	   0.0246	
  20.0000	  87.0000	   2.5000	   0.4348	   1.8913	   0.0543	   0.0007	  -0.0674	   0.0629	   0.0001	  -0.0112	   0.0122	   0.0194	   0.0004	  -0.0001	   0.3319	   0.9999	   0.7061	   7.7163	   2.6081	   0.0105	
  22.5000	  87.0000	   2.5000	   0.4891	   1.8913	   0.0543	   0.1265	   0.0376	   0.1463	   0.0211	   0.0063	   0.0090	   0.0144	   0.0002	  -0.0000	   0.0994	  -1.3999	  -1.5433	   9.7279	   4.5081	   0.0244	
  25.0000	  87.0000	   2.5000	   0.5435	   1.8913	   0.0543	  -0.0070	  -0.0000	  -0.0048	  -0.0012	  -0.0000	  -0.0003	  -0.0008	  -0.0000	   0.0000	  -0.0089	   0.0970	   0.0087	   0.0993	  -0.0759	  -0.0008	
  27.5000	  87.0000	   2.5000	   0.5978	   1.8913	   0.0543	  -0.0003	   0.0010	   0.0019	  -0.0000	   0.0002	   0.0001	   0.0000	   0.0000	   0.0000	  -0.0021	   0.0061	  -0.0264	   0.2162	   0.0508	   0.0003	
  30.0000	  87.0000	   2.5000	   0.6522	   1.8913	   0.0543	  -0.0011	  -0.0003	  -0.0001	  -0.0002	  -0.0000	   0.0000	  -0.0001	   0.0000	   0.0000	  -0.0017	   0.0105	   0.0002	  -0.0128	  -0.0226	  -0.0000	
  32.5000	  87.0000	   2.5000	   0.7065	   1.8913	   0.0543	  -0.0005	   0.0000	   0.0005	  -0.0001	   0.0000	   0.0000	  -0.0000	   0.0000	   0.0000	  -0.0010	   0.0046	  -0.0044	   0.0306	  -0.0011	   0.0001	
  35.0000	  87.0000	   2.5000	   0.7609	   1.8913	   0.0543	  -0.0004	  -0.0001	   0.0003	  -0.0001	  -0.0000	   0.0000	  -0.0000	   0.0000	   0.0000	  -0.0007	   0.0035	  -0.0018	   0.0068	  -0.0060	   0.0001	
  37.5000	  87.0000	   2.5000	   0.8152	   1.8913	   0.0543	  -0.0003	  -0.0001	   0.0003	  -0.0001	  -0.0000	   0.0000	  -0.0000	   0.0000	   0.0000	  -0.0006	   0.0027	  -0.0015	   0.0060	  -0.0044	   0.0001	
  40.0000	  87.0000	   2.5000	   0.8696	   1.8913	   0.0543	  -0.0003	  -0.0001	   0.0003	  -0.0000	  -0.0000	   0.0000	   0.0000	   0.0000	   0.0000	  -0.0005	   0.0022	  -0.0010	   0.0031	  -0.0043	   0.0000	
  42.5000	  87.0000	   2.5000	   0.9239	   1.8913	   0.0543	  -0.0002	  -0.0001	   0.0002	  -0.0000	  -0.0000	   0.0000	   0.0000	   0.0000	   0.0000	  -0.0004	   0.0019	  -0.0008	   0.0018	  -0.0039	   0.0000	
  45.0000	  87.0000	   2.5000	   0.9783	   1.8913	   0.0543	  -0.0002	  -0.0001	   0.0002	  -0.0000	  -0.0000	   0.0000	   0.0000	   0.0000	   0.0000	  -0.0003	   0.0016	  -0.0006	   0.0010	  -0.0036	   0.0000	
  47.5000	  87.0000	   2.5000	   1.0326	   1.8913	   0.0543	  -0.0002	  -0.0001	   0.0002	  -0.0000	  -0.0000	   0.0000	   0.0000	   0.0000	   0.0000	  -0.0003	   0.0015	  -0.0005	   0.0004	  -0.0033	   0.0000	
  50.0000	  87.0000	   2.5000	   1.0870	   1.8913	   0.0543	  -0.0002	  -0.0001	   0.0002	  -0.0000	  -0.0000	   0.0000	   0.0000	   0.0000	   0.0000	  -0.0003	   0.0013	  -0.0004	  -0.0000	  -0.0031	   0.0000	
  52.5000	  87.0000	   2.5000	   1.1413	   1.8913	   0.0543	  -0.0001	  -0.0000	   0.0002	  -0.0000	  -0.0000	   0.0000	   0.0000	   0.0000	   0.0000	  -0.0002	   0.0011	  -0.0003	  -0.0003	  -0.0028	   0.0000	
  55.0000	  87.0000	   2.5000	   1.1957	   1.8913	   0.0543	  -0.0001	  -0.0000	   0.0002	  -0.0000	  -0.0000	   0.0000	   0.0000	   0.0000	   0.0000	  -0.0002	   0.0010	  -0.0002	  -0.0004	  -0.0025	   0.0000	
  57.5000	  87.0000	   2.5000	   1.2500	   1.8913	   0.0543	  -0.0001	  -0.0000	   0.0002	  -0.0000	  -0.0000	   0.0000	   0.0000	   0.0000	   0.0000	  -0.0002	   0.0009	  -0.0002	  -0.0006	  -0.0023	   0.0000	
  60.0000	  87.0000	   2.5000	   1.3043	   1.8913	   0.0543	  -0.0001	  -0.0000	   0.0001	  -0.0000	  -0.0000	   0.0000	   0.0000	   0.0000	   0.0000	  -0.0002	   0.0008	  -0.0001	  -0.0006	  -0.0021	   0.0000	
  62.5000	  87.0000	   2.5000	   1.3587	   1.8913	   0.0543	  -0.0001	  -0.0000	   0.0001	  -0.0000	  -0.0000	   0.0000	   0.0000	   0.0000	   0.0000	  -0.0001	   0.0008	  -0.0001	  -0.0007	  -0.0019	   0.0000	
  65.0000	  87.0000	   2.5000	   1.4130	   1.8913	   0.0543	  -0.0001	  -0.0000	   0.0001	  -0.0000	  -0.0000	   0.0000	   0.0000	   0.0000	   0.0000	  -0.0001	   0.0007	  -0.0001	  -0.0007	  -0.0018	   0.0000	
  67.5000	  87.0000	   2.5000	   1.4674	   1.8913	   0.0543	  -0.0001	  -0.0000	   0.0001	  -0.0000	  -0.0000	   0.0000	   0.0000	   0.0000	   0.0000	  -0.0001	   0.0007	  -0.0001	  -0.0008	  -0.0018	   0.0000	
  70.0000	  87.0000	   2.5000	   1.5217	   1.8913	   0.0543	  -0.0001	  -0.0000	   0.0001	  -0.0000	  -0.0000	   0.0000	   0.0000	   0.0000	   0.0000	  -0.0001	   0.0007	  -0.0001	  -0.0008	  -0.0017	   0.0000	
  72.5000	  87.0000	   2.5000	   1.5761	   1.8913	   0.0543	  -0.0000	  -0.0000	   0.0001	  -0.0000	  -0.0000	   0.0000	   0.0000	   0.0000	   0.0000	  -0.0001	   0.0007	  -0.0001	  -0.0008	  -0.0017	   0.0000	
  75.0000	  87.0000	   2.5000	   1.6304	   1.8913	   0.0543	  -0.0000	  -0.0000	   0.0001	  -0.0000	  -0.0000	   0.0000	   0.0000	   0.0000	   0.0000	  -0.0001	   0.0006	  -0.0000	  -0.0008	  -0.0016	   0.0000	
  77.5000	  87.0000	   2.5000	   1.6848	   1.8913	   0.0543	  -0.0000	  -0.0000	   0.0001	  -0.0000	  -0.0000	   0.0000	   0.0000	   0.0000	   0.0000	  -0.0001	   0.0006	  -0.0000	  -0.0009	  -0.0015	   0.0000	
  80.0000	  87.0000	   2.5000	   1.7391	   1.8913	   0.0543	  -0.0000	  -0.0000	   0.0001	  -0.0000	  -0.0000	   0.0000	   0.0000	   0.0000	   0.0000	  -0.0001	   0.0006	  -0.0000	  -0.0009	  -0.0015	   0.0000	
 -80.0000	  87.0000	   5.0000	  -1.7391	   1.8913	   0.1087	   0.0000	   0.0000	  -0.0000	   0.0000	   0.0000	  -0.0000	  -0.0000	  -0.0000	  -0.0000	   0.0000	  -0.0002	  -0.0000	   0.0006	   0.0006	  -0.0000	
 -77.5000	  87.0000	   5.0000	  -1.6848	   1.8913	   0.1087	   0.0000	   0.0000	  -0.0000	   0.0000	   0.0000	  -0.0000	  -0.0000	  -0.0000	  -0.0000	   0.0000	  -0.0002	  -0.0000	   0.0006	   0.0006	  -0.0000	
 -75.0000	  87.0000	   5.0000	  -1.6304	   1.8913	   0.1087	   0.0000	   0.0000	  -0.0000	   0.0000	   0.0000	  -0.0000	  -0.0000	  -0.0000	  -0.0000	   0.0000	  -0.0002	  -0.0000	   0.0006	   0.0006	  -0.0000	
 -72.5000	  87.0000	   5.0000	  -1.5761	   1.8913	   0.1087	   0.0000	   0.0000	  -0.0000	   0.0000	   0.0000	  -0.0000	  -0.0000	  -0.0000	  -0.0000	   0.0000	  -0.0002	  -0.0000	   0.0006	   0.0005	  -0.0000	
 -70.0000	  87.0000	   5.0000	  -1.5217	   1.8913	   0.1087	   0.0000	   0.0000	  -0.0000	   0.0000	   0.0000	  -0.0000	  -0.0000	  -0.0000	  -0.0000	   0.0000	  -0.0002	  -0.0000	   0.0006	   0.0005	  -0.0000	
 -67.5000	  87.0000	   5.0000	  -1.4674	   1.8913	   0.1087	   0.0000	   0.0000	  -0.0000	   0.0000	   0.0000	  -0.0000	  -0.0000	  -0.0000	  -0.0000	   0.0000	  -0.0002	  -0.0000	   0.0006	   0.0005	  -0.0000	
 -65.0000	  87.0000	   5.0000	  -1.4130	   1.8913	   0.1087	   0.0000	   0.0000	  -0.0000	   0.0000	   0.0000	  -0.0000	  -0.0000	  -0.0000	  -0.0000	   0.0000	  -0.0002	  -0.0000	   0.0006	   0.0006	  -0.0000	
 -62.5000	  87.0000	   5.0000	  -1.3587	   1.8913	   0.1087	   0.0000	   0.0000	  -0.0000	   0.0000	   0.0000	  -0.0000	  -0.0000	  -0.0000	  -0.0000	   0.0000	  -0.0002	  -0.0000	   0.0007	   0.0007	  -0.0000	
 -60.0000	  87.0000	   5.0000	  -1.3043	   1.8913	   0.1087	   0.0000	   0.0000	  -0.0000	   0.0000	   0.0000	  -0.0000	  -0.0000	  -0.0000	  -0.0000	   0.0000	  -0.0003	  -0.0001	   0.0009	   0.0008	  -0.0000	
 -57.5000	  87.0000	   5.0000	  -1.2500	   1.8913	   0.1087	   0.0000	   0.0000	  -0.0000	   0.0000	   0.0000	  -0.0000	  -0.0000	  -0.0000	  -0.0000	   0.0000	  -0.0003	  -0.0001	   0.0010	   0.0010	  -0.0000	
 -55.0000	  87.0000	   5.0000	  -1.1957	   1.8913	   0.1087	   0.0000	   0.0000	  -0.0001	   0.0000	   0.0000	  -0.0000	  -0.0000	  -0.0000	  -0.0000	   0.0000	  -0.0003	  -0.0001	   0.0012	   0.0011	  -0.0000	
 -52.5000	  87.0000	   5.0000	  -1.1413	   1.8913	   0.1087	   0.0000	   0.0000	  -0.0001	   0.0000	   0.0000	  -0.0000	  -0.0000	  -0.0000	  -0.0000	   0.0000	  -0.0004	  -0.0001	   0.0014	   0.0012	  -0.0000	
 -50.0000	  87.0000	   5.0000	  -1.0870	   1.8913	   0.1087	   0.0000	   0.0000	  -0.0001	   0.0000	   0.0000	  -0.0000	  -0.0000	  -0.0000	  -0.0000	   0.0000	  -0.0004	  -0.0001	   0.0015	   0.0013	  -0.0000	
 -47.5000	  87.0000	   5.0000	  -1.0326	   1.8913	   0.1087	   0.0000	   0.0000	  -0.0001	   0.0000	   0.0000	  -0.0000	  -0.0000	  -0.0000	  -0.0000	   0.0000	  -0.0004	  -0.0001	   0.0015	   0.0014	  -0.0000	
 -45.0000	  87.0000	   5.0000	  -0.9783	   1.8913	   0.1087	   0.0000	   0.0000	  -0.0001	   0.0000	   0.0000	  -0.0000	  -0.0000	  -0.0000	  -0.0000	   0.0000	  -0.0004	  -0.0001	   0.0016	   0.0015	  -0.0000	
 -42.5000	  87.0000	   5.0000	  -0.9239	   1.8913	   0.1087	   0.0001	   0.0000	  -0.0001	   0.0000	   0.0000	  -0.0000	  -0.0000	  -0.0000	  -0.0000	   0.0000	  -0.0005	  -0.0001	   0.0018	   0.0016	  -0.0000	
 -40.0000	  87.0000	   5.0000	  -0.8696	   1.8913	   0.1087	   0.0001	   0.0000	  -0.0001	   0.0000	   0.0000	  -0.0000	  -0.0000	  -0.0000	  -0.0000	   0.0000	  -0.0006	  -0.0001	   0.0022	   0.0019	  -0.0000	
 -37.5000	  87.0000	   5.0000	  -0.8152	   1.8913	   0.1087	   0.0001	   0.0000	  -0.0001	   0.0000	   0.0000	  -0.0000	  -0.0000	  -0.0000	  -0.0000	   0.0000	  -0.0007	  -0.0001	   0.0027	   0.0023	  -0.0000	
 -35.0000	  87.0000	   5.0000	  -0.7609	   1.8913	   0.1087	   0.0001	   0.0000	  -0.0001	   0.0000	   0.0000	  -0.0000	  -0.0000	  -0.0000	  -0.0000	  -0.0000	  -0.0010	  -0.0001	   0.0042	   0.0039	  -0.0000	
 -32.5000	  87.0000	   5.0000	  -0.7065	   1.8913	   0.1087	   0.0002	   0.0000	  -0.0001	   0.0000	   0.0000	  -0.0000	  -0.0000	  -0.0000	  -0.0000	  -0.0000	  -0.0010	  -0.0002	   0.0041	   0.0029	  -0.0000	
 -30.0000	  87.0000	   5.0000	  -0.6522	   1.8913	   0.1087	   0.0002	   0.0001	  -0.0002	   0.0000	   0.0000	  -0.0000	  -0.0000	  -0.0000	  -0.0000	  -0.0002	  -0.0019	  -0.0001	   0.0079	   0.0068	  -0.0000	
 -27.5000	  87.0000	   5.0000	  -0.5978	   1.8913	   0.1087	   0.0002	   0.0003	  -0.0000	   0.0000	   0.0000	   0.0000	  -0.0000	  -0.0000	  -0.0000	  -0.0009	  -0.0104	   0.0025	   0.0441	   0.0618	  -0.0000	
 -25.0000	  87.0000	   5.0000	  -0.5435	   1.8913	   0.1087	   0.0015	  -0.0013	  -0.0020	   0.0002	  -0.0002	  -0.0006	  -0.0002	  -0.0000	   0.0000	   0.0015	   0.0723	  -0.0174	  -0.3129	  -0.5008	  -0.0003	
 -22.5000	  87.0000	   5.0000	  -0.4891	   1.8913	   0.1087	  -0.0065	   0.0103	   0.0113	  -0.0011	   0.0017	   0.0033	   0.0008	   0.0000	  -0.0000	   0.0107	  -0.5500	   0.0591	   2.4811	   3.7023	   0.0019	
 -20.0000	  87.0000	   5.0000	  -0.4348	   1.8913	   0.1087	  -0.0774	   0.0596	   0.0979	  -0.0129	   0.0099	   0.0264	   0.0121	   0.0006	   0.0000	  -0.0369	  -2.2151	   0.2485	   9.9875	  13.2215	   0.0163	
 -17.5000	  87.0000	   5.0000	  -0.3804	   1.8913	   0.1087	  -0.1797	   0.0751	   0.1927	  -0.0299	   0.0125	   0.0400	   0.0241	   0.0016	   0.0002	  -0.2095	  -0.5754	   0.3018	   3.0861	   2.3649	   0.0321	
 -15.0000	  87.0000	   5.0000	  -0.3261	   1.8913	   0.1087	  -0.2784	   0.0940	   0.2941	  -0.0464	   0.0157	   0.0478	   0.0269	   0.0022	   0.0003	  -0.2350	  -0.4702	   0.2307	   3.3650	   3.6129	   0.0490	
 -12.5000	  87.0000	   5.0000	  -0.2717	   1.8913	   0.1087	  -0.3497	   0.0748	   0.3594	  -0.0583	   0.0125	   0.0519	   0.0275	   0.0026	   0.0003	  -0.2128	  -0.3734	   0.0460	   3.2388	   3.3829	   0.0599	
 -10.0000	  87.0000	   5.0000	  -0.2174	   1.8913	   0.1087	  -0.4058	   0.0525	   0.4115	  -0.0676	   0.0087	   0.0550	   0.0272	   0.0028	   0.0003	  -0.1955	  -0.3479	   0.0969	   3.2293	   3.2739	   0.0686	
  -7.5000	  87.0000	   5.0000	  -0.1630	   1.8913	   0.1087	  -0.4562	   0.0369	   0.4595	  -0.0760	   0.0061	   0.0575	   0.0275	   0.0030	   0.0002	  -0.1444	  -0.3974	  -0.0178	   3.6616	   3.5302	   0.0766	
  -5.0000	  87.0000	   5.0000	  -0.1087	   1.8913	   0.1087	  -0.4908	   0.0100	   0.4926	  -0.0818	   0.0017	   0.0585	   0.0276	   0.0031	   0.0000	  -0.0230	  -0.4646	  -0.0846	   3.9100	   3.6657	   0.0821	
  -2.5000	  87.0000	   5.0000	  -0.0543	   1.8913	   0.1087	  -0.5060	  -0.0322	   0.5093	  -0.0843	  -0.0054	   0.0581	   0.0283	   0.0032	  -0.0001	   0.0636	  -0.4266	  -0.1494	   3.8536	   3.3829	   0.0849	
   0.0000	  87.0000	   5.0000	   0.0000	   1.8913	   0.1087	  -0.5188	  -0.0443	   0.5220	  -0.0865	  -0.0074	   0.0578	   0.0284	   0.0031	  -0.0002	   0.1195	  -0.3632	  -0.1100	   3.7188	   3.2931	   0.0870	
   2.5000	  87.0000	   5.0000	   0.0543	   1.8913	   0.1087	  -0.5009	  -0.0402	   0.5028	  -0.0835	  -0.0067	   0.0557	   0.0282	   0.0029	  -0.0003	   0.1903	  -0.2505	  -0.2228	   3.6197	   3.4106	   0.0838	
   5.0000	  87.0000	   5.0000	   0.1087	   1.8913	   0.1087	  -0.4368	  -0.0629	   0.4416	  -0.0728	  -0.0105	   0.0513	   0.0276	   0.0026	  -0.0004	   0.2401	  -0.1790	  -0.2845	   3.4722	   3.3768	   0.0736	
   7.5000	  87.0000	   5.0000	   0.1630	   1.8913	   0.1087	  -0.3510	  -0.1352	   0.3784	  -0.0585	  -0.0225	   0.0453	   0.0296	   0.0022	  -0.0004	   0.3066	  -0.2322	  -0.2188	   3.4567	   3.0259	   0.0631	
  10.0000	  87.0000	   5.0000	   0.2174	   1.8913	   0.1087	  -0.3263	  -0.1920	   0.3792	  -0.0544	  -0.0320	   0.0428	   0.0300	   0.0021	  -0.0005	   0.3420	  -0.2754	  -0.0200	   3.5156	   2.9603	   0.0632	
  12.5000	  87.0000	   5.0000	   0.2717	   1.8913	   0.1087	  -0.2962	  -0.1857	   0.3494	  -0.0494	  -0.0310	   0.0405	   0.0255	   0.0018	  -0.0003	   0.2918	  -0.2241	   0.0470	   3.4564	   3.4903	   0.0582	
  15.0000	  87.0000	   5.0000	   0.3261	   1.8913	   0.1087	  -0.2149	  -0.1635	   0.2678	  -0.0358	  -0.0273	   0.0357	   0.0231	   0.0014	  -0.0002	   0.2187	  -0.1889	  -0.1494	   3.5620	   3.3091	   0.0446	
  17.5000	  87.0000	   5.0000	   0.3804	   1.8913	   0.1087	  -0.0941	  -0.1307	   0.1677	  -0.0157	  -0.0218	   0.0304	   0.0200	   0.0010	  -0.0001	   0.1123	  -0.0851	  -0.1370	   3.8225	   2.8099	   0.0279	
  20.0000	  87.0000	   5.0000	   0.4348	   1.8913	   0.1087	  -0.0420	  -0.0746	   0.0793	  -0.0070	  -0.0124	   0.0233	   0.0162	   0.0006	  -0.0000	   0.0741	   0.0529	   0.1972	   3.1186	   2.8908	   0.0132	
  22.5000	  87.0000	   5.0000	   0.4891	   1.8913	   0.1087	  -0.0022	   0.1324	   0.1298	  -0.0004	   0.0221	   0.0057	   0.0155	   0.0002	  -0.0000	   0.0281	   1.1899	  -1.3704	  22.7779	   5.3157	   0.0216	
  25.0000	  87.0000	   5.0000	   0.5435	   1.8913	   0.1087	  -0.0015	  -0.0005	  -0.0015	  -0.0002	  -0.0001	  -0.0002	  -0.0001	  -0.0000	  -0.0000	  -0.0027	   0.0248	   0.0547	  -0.3590	  -0.2144	  -0.0003	
  27.5000	  87.0000	   5.0000	   0.5978	   1.8913	   0.1087	   0.0012	   0.0011	   0.0015	   0.0002	   0.0002	   0.0000	   0.0002	   0.0000	  -0.0000	   0.0019	  -0.0085	  -0.0165	   0.1870	   0.0743	   0.0002	
  30.0000	  87.0000	   5.0000	   0.6522	   1.8913	   0.1087	   0.0000	  -0.0004	  -0.0006	   0.0000	  -0.0001	  -0.0000	  -0.0000	  -0.0000	  -0.0000	   0.0000	  -0.0024	   0.0073	  -0.0852	  -0.0226	  -0.0001	
  32.5000	  87.0000	   5.0000	   0.7065	   1.8913	   0.1087	   0.0002	   0.0001	   0.0000	   0.0000	   0.0000	  -0.0000	   0.0000	  -0.0000	  -0.0000	   0.0004	  -0.0014	  -0.0007	   0.0142	   0.0076	   0.0000	
  35.0000	  87.0000	   5.0000	   0.7609	   1.8913	   0.1087	   0.0001	  -0.0000	  -0.0001	   0.0000	  -0.0000	  -0.0000	  -0.0000	  -0.0000	  -0.0000	   0.0001	  -0.0008	   0.0008	  -0.0068	  -0.0003	  -0.0000	
  37.5000	  87.0000	   5.0000	   0.8152	   1.8913	   0.1087	   0.0001	   0.0000	  -0.0001	   0.0000	   0.0000	  -0.0000	   0.0000	  -0.0000	  -0.0000	   0.0001	  -0.0006	   0.0003	  -0.0005	   0.0014	  -0.0000	
  40.0000	  87.0000	   5.0000	   0.8696	   1.8913	   0.1087	   0.0001	   0.0000	  -0.0001	   0.0000	   0.0000	  -0.0000	  -0.0000	  -0.0000	  -0.0000	   0.0001	  -0.0005	   0.0003	  -0.0010	   0.0009	  -0.0000	
  42.5000	  87.0000	   5.0000	   0.9239	   1.8913	   0.1087	   0.0001	   0.0000	  -0.0001	   0.0000	   0.0000	  -0.0000	  -0.0000	  -0.0000	  -0.0000	   0.0001	  -0.0005	   0.0002	  -0.0005	   0.0010	  -0.0000	
  45.0000	  87.0000	   5.0000	   0.9783	   1.8913	   0.1087	   0.0001	   0.0000	  -0.0001	   0.0000	   0.0000	  -0.0000	  -0.0000	  -0.0000	  -0.0000	   0.0001	  -0.0004	   0.0002	  -0.0003	   0.0010	  -0.0000	
  47.5000	  87.0000	   5.0000	   1.0326	   1.8913	   0.1087	   0.0000	   0.0000	  -0.0001	   0.0000	   0.0000	  -0.0000	  -0.0000	  -0.0000	  -0.0000	   0.0001	  -0.0004	   0.0001	  -0.0001	   0.0009	  -0.0000	
  50.0000	  87.0000	   5.0000	   1.0870	   1.8913	   0.1087	   0.0000	   0.0000	  -0.0001	   0.0000	   0.0000	  -0.0000	  -0.0000	  -0.0000	  -0.0000	   0.0001	  -0.0004	   0.0001	  -0.0000	   0.0009	  -0.0000	
  52.5000	  87.0000	   5.0000	   1.1413	   1.8913	   0.1087	   0.0000	   0.0000	  -0.0001	   0.0000	   0.0000	  -0.0000	  -0.0000	  -0.0000	  -0.0000	   0.0001	  -0.0003	   0.0001	   0.0001	   0.0008	  -0.0000	
  55.0000	  87.0000	   5.0000	   1.1957	   1.8913	   0.1087	   0.0000	   0.0000	  -0.0000	   0.0000	   0.0000	  -0.0000	  -0.0000	  -0.0000	  -0.0000	   0.0001	  -0.0003	   0.0001	   0.0001	   0.0006	  -0.0000	
  57.5000	  87.0000	   5.0000	   1.2500	   1.8913	   0.1087	   0.0000	   0.0000	  -0.0000	   0.0000	   0.0000	  -0.0000	  -0.0000	  -0.0000	  -0.0000	   0.0000	  -0.0002	   0.0000	   0.0001	   0.0005	  -0.0000	
  60.0000	  87.0000	   5.0000	   1.3043	   1.8913	   0.1087	   0.0000	   0.0000	  -0.0000	   0.0000	   0.0000	  -0.0000	  -0.0000	  -0.0000	  -0.0000	   0.0000	  -0.0002	   0.0000	   0.0001	   0.0005	  -0.0000	
  62.5000	  87.0000	   5.0000	   1.3587	   1.8913	   0.1087	   0.0000	   0.0000	  -0.0000	   0.0000	   0.0000	  -0.0000	  -0.0000	  -0.0000	  -0.0000	   0.0000	  -0.0002	   0.0000	   0.0002	   0.0004	  -0.0000	
  65.0000	  87.0000	   5.0000	   1.4130	   1.8913	   0.1087	   0.0000	   0.0000	  -0.0000	   0.0000	   0.0000	  -0.0000	  -0.0000	  -0.0000	  -0.0000	   0.0000	  -0.0002	   0.0000	   0.0002	   0.0004	  -0.0000	
  67.5000	  87.0000	   5.0000	   1.4674	   1.8913	   0.1087	   0.0000	   0.0000	  -0.0000	   0.0000	   0.0000	  -0.0000	  -0.0000	  -0.0000	  -0.0000	   0.0000	  -0.0002	   0.0000	   0.0002	   0.0004	  -0.0000	
  70.0000	  87.0000	   5.0000	   1.5217	   1.8913	   0.1087	   0.0000	   0.0000	  -0.0000	   0.0000	   0.0000	  -0.0000	  -0.0000	  -0.0000	  -0.0000	   0.0000	  -0.0002	   0.0000	   0.0002	   0.0005	  -0.0000	
  72.5000	  87.0000	   5.0000	   1.5761	   1.8913	   0.1087	   0.0000	   0.0000	  -0.0000	   0.0000	   0.0000	  -0.0000	  -0.0000	  -0.0000	  -0.0000	   0.0000	  -0.0002	   0.0000	   0.0002	   0.0005	  -0.0000	
  75.0000	  87.0000	   5.0000	   1.6304	   1.8913	   0.1087	   0.0000	   0.0000	  -0.0000	   0.0000	   0.0000	  -0.0000	  -0.0000	  -0.0000	  -0.0000	   0.0000	  -0.0002	   0.0000	   0.0002	   0.0005	  -0.0000	
  77.5000	  87.0000	   5.0000	   1.6848	   1.8913	   0.1087	   0.0000	   0.0000	  -0.0000	   0.0000	   0.0000	  -0.0000	  -0.0000	  -0.0000	  -0.0000	   0.0000	  -0.0002	   0.0000	   0.0002	   0.0004	  -0.0000	
  80.0000	  87.0000	   5.0000	   1.7391	   1.8913	   0.1087	   0.0000	   0.0000	  -0.0000	   0.0000	   0.0000	  -0.0000	  -0.0000	  -0.0000	  -0.0000	   0.0000	  -0.0002	   0.0000	   0.0002	   0.0004	  -0.0000	
 -80.0000	  87.0000	   7.5000	  -1.7391	   1.8913	   0.1630	  -0.0000	  -0.0000	   0.0000	  -0.0000	  -0.0000	   0.0000	   0.0000	   0.0000	   0.0000	  -0.0000	   0.0000	   0.0000	  -0.0001	  -0.0001	   0.0000	
 -77.5000	  87.0000	   7.5000	  -1.6848	   1.8913	   0.1630	  -0.0000	  -0.0000	   0.0000	  -0.0000	  -0.0000	   0.0000	   0.0000	   0.0000	   0.0000	  -0.0000	   0.0000	   0.0000	  -0.0001	  -0.0001	   0.0000	
 -75.0000	  87.0000	   7.5000	  -1.6304	   1.8913	   0.1630	  -0.0000	  -0.0000	   0.0000	  -0.0000	  -0.0000	   0.0000	   0.0000	   0.0000	   0.0000	  -0.0000	   0.0000	   0.0000	  -0.0001	  -0.0001	   0.0000	
 -72.5000	  87.0000	   7.5000	  -1.5761	   1.8913	   0.1630	  -0.0000	  -0.0000	   0.0000	  -0.0000	  -0.0000	   0.0000	   0.0000	   0.0000	   0.0000	  -0.0000	   0.0000	   0.0000	  -0.0001	  -0.0001	   0.0000	
 -70.0000	  87.0000	   7.5000	  -1.5217	   1.8913	   0.1630	  -0.0000	  -0.0000	   0.0000	  -0.0000	  -0.0000	   0.0000	   0.0000	   0.0000	   0.0000	  -0.0000	   0.0000	   0.0000	  -0.0002	  -0.0001	   0.0000	
 -67.5000	  87.0000	   7.5000	  -1.4674	   1.8913	   0.1630	  -0.0000	  -0.0000	   0.0000	  -0.0000	  -0.0000	   0.0000	   0.0000	   0.0000	   0.0000	  -0.0000	   0.0000	   0.0000	  -0.0002	  -0.0001	   0.0000	
 -65.0000	  87.0000	   7.5000	  -1.4130	   1.8913	   0.1630	  -0.0000	  -0.0000	   0.0000	  -0.0000	  -0.0000	   0.0000	   0.0000	   0.0000	   0.0000	  -0.0000	   0.0001	   0.0000	  -0.0002	  -0.0002	   0.0000	
 -62.5000	  87.0000	   7.5000	  -1.3587	   1.8913	   0.1630	  -0.0000	  -0.0000	   0.0000	  -0.0000	  -0.0000	   0.0000	   0.0000	   0.0000	   0.0000	  -0.0000	   0.0001	   0.0000	  -0.0002	  -0.0002	   0.0000	
 -60.0000	  87.0000	   7.5000	  -1.3043	   1.8913	   0.1630	  -0.0000	  -0.0000	   0.0000	  -0.0000	  -0.0000	   0.0000	   0.0000	   0.0000	   0.0000	  -0.0000	   0.0001	   0.0000	  -0.0002	  -0.0002	   0.0000	