Variables = "x [mm]"	"y [mm]"	"z [mm]"	"x/B"	"y/B"	"z/B"	"C*"	"C*std"	
Zone T = "East_y=-115mm_Tec" I=17 J=25 F=POINT
 -20.0000	-115.0000	   5.0000	  -0.4348	  -2.5000	   0.1087	   8.8300	   5.0900	
 -17.5000	-115.0000	   5.0000	  -0.3804	  -2.5000	   0.1087	   9.0125	   5.5700	
 -15.0000	-115.0000	   5.0000	  -0.3261	  -2.5000	   0.1087	   9.1950	   6.0500	
 -12.5000	-115.0000	   5.0000	  -0.2717	  -2.5000	   0.1087	   9.3775	   6.5300	
 -10.0000	-115.0000	   5.0000	  -0.2174	  -2.5000	   0.1087	   9.5600	   7.0100	
  -7.5000	-115.0000	   5.0000	  -0.1630	  -2.5000	   0.1087	  12.9825	  18.6400	
  -5.0000	-115.0000	   5.0000	  -0.1087	  -2.5000	   0.1087	  16.4050	  30.2700	
  -2.5000	-115.0000	   5.0000	  -0.0543	  -2.5000	   0.1087	  19.8275	  41.9000	
   0.0000	-115.0000	   5.0000	   0.0000	  -2.5000	   0.1087	  23.2500	  53.5300	
   2.5000	-115.0000	   5.0000	   0.0543	  -2.5000	   0.1087	  35.5775	  60.0925	
   5.0000	-115.0000	   5.0000	   0.1087	  -2.5000	   0.1087	  47.9050	  66.6550	
   7.5000	-115.0000	   5.0000	   0.1630	  -2.5000	   0.1087	  60.2325	  73.2175	
  10.0000	-115.0000	   5.0000	   0.2174	  -2.5000	   0.1087	  72.5600	  79.7800	
  12.5000	-115.0000	   5.0000	   0.2717	  -2.5000	   0.1087	  71.9875	  69.4650	
  15.0000	-115.0000	   5.0000	   0.3261	  -2.5000	   0.1087	  71.4150	  59.1500	
  17.5000	-115.0000	   5.0000	   0.3804	  -2.5000	   0.1087	  70.8425	  48.8350	
  20.0000	-115.0000	   5.0000	   0.4348	  -2.5000	   0.1087	  70.2700	  38.5200	
 -20.0000	-115.0000	   7.5000	  -0.4348	  -2.5000	   0.1630	   8.9675	   5.1075	
 -17.5000	-115.0000	   7.5000	  -0.3804	  -2.5000	   0.1630	   9.1369	   5.5275	
 -15.0000	-115.0000	   7.5000	  -0.3261	  -2.5000	   0.1630	   9.3063	   5.9475	
 -12.5000	-115.0000	   7.5000	  -0.2717	  -2.5000	   0.1630	   9.4756	   6.3675	
 -10.0000	-115.0000	   7.5000	  -0.2174	  -2.5000	   0.1630	  10.0829	   8.2932	
  -7.5000	-115.0000	   7.5000	  -0.1630	  -2.5000	   0.1630	  12.3688	  15.9906	
  -5.0000	-115.0000	   7.5000	  -0.1087	  -2.5000	   0.1630	  15.0925	  25.1938	
  -2.5000	-115.0000	   7.5000	  -0.0543	  -2.5000	   0.1630	  17.8163	  34.3969	
   0.0000	-115.0000	   7.5000	   0.0000	  -2.5000	   0.1630	  21.7520	  43.0119	
   2.5000	-115.0000	   7.5000	   0.0543	  -2.5000	   0.1630	  30.3338	  49.3725	
   5.0000	-115.0000	   7.5000	   0.1087	  -2.5000	   0.1630	  40.1275	  55.1450	
   7.5000	-115.0000	   7.5000	   0.1630	  -2.5000	   0.1630	  49.9212	  60.9175	
  10.0000	-115.0000	   7.5000	   0.2174	  -2.5000	   0.1630	  58.1486	  64.4278	
  12.5000	-115.0000	   7.5000	   0.2717	  -2.5000	   0.1630	  60.3712	  59.2662	
  15.0000	-115.0000	   7.5000	   0.3261	  -2.5000	   0.1630	  61.0275	  51.8425	
  17.5000	-115.0000	   7.5000	   0.3804	  -2.5000	   0.1630	  61.6837	  44.4188	
  20.0000	-115.0000	   7.5000	   0.4348	  -2.5000	   0.1630	  62.3400	  36.9950	
 -20.0000	-115.0000	  10.0000	  -0.4348	  -2.5000	   0.2174	   9.1050	   5.1250	
 -17.5000	-115.0000	  10.0000	  -0.3804	  -2.5000	   0.2174	   9.2613	   5.4850	
 -15.0000	-115.0000	  10.0000	  -0.3261	  -2.5000	   0.2174	   9.4175	   5.8450	
 -12.5000	-115.0000	  10.0000	  -0.2717	  -2.5000	   0.2174	   9.5737	   6.2050	
 -10.0000	-115.0000	  10.0000	  -0.2174	  -2.5000	   0.2174	  10.1453	   7.9908	
  -7.5000	-115.0000	  10.0000	  -0.1630	  -2.5000	   0.2174	  11.7550	  13.3413	
  -5.0000	-115.0000	  10.0000	  -0.1087	  -2.5000	   0.2174	  13.7800	  20.1175	
  -2.5000	-115.0000	  10.0000	  -0.0543	  -2.5000	   0.2174	  15.8050	  26.8938	
   0.0000	-115.0000	  10.0000	   0.0000	  -2.5000	   0.2174	  18.9933	  33.2714	
   2.5000	-115.0000	  10.0000	   0.0543	  -2.5000	   0.2174	  25.0900	  38.6525	
   5.0000	-115.0000	  10.0000	   0.1087	  -2.5000	   0.2174	  32.3500	  43.6350	
   7.5000	-115.0000	  10.0000	   0.1630	  -2.5000	   0.2174	  39.6100	  48.6175	
  10.0000	-115.0000	  10.0000	   0.2174	  -2.5000	   0.2174	  45.6756	  51.4856	
  12.5000	-115.0000	  10.0000	   0.2717	  -2.5000	   0.2174	  48.7550	  49.0675	
  15.0000	-115.0000	  10.0000	   0.3261	  -2.5000	   0.2174	  50.6400	  44.5350	
  17.5000	-115.0000	  10.0000	   0.3804	  -2.5000	   0.2174	  52.5250	  40.0025	
  20.0000	-115.0000	  10.0000	   0.4348	  -2.5000	   0.2174	  54.4100	  35.4700	
 -20.0000	-115.0000	  12.5000	  -0.4348	  -2.5000	   0.2717	   9.2425	   5.1425	
 -17.5000	-115.0000	  12.5000	  -0.3804	  -2.5000	   0.2717	   9.3856	   5.4425	
 -15.0000	-115.0000	  12.5000	  -0.3261	  -2.5000	   0.2717	   9.5288	   5.7425	
 -12.5000	-115.0000	  12.5000	  -0.2717	  -2.5000	   0.2717	   9.6719	   6.0425	
 -10.0000	-115.0000	  12.5000	  -0.2174	  -2.5000	   0.2717	  10.0178	   7.0367	
  -7.5000	-115.0000	  12.5000	  -0.1630	  -2.5000	   0.2717	  11.1412	  10.6919	
  -5.0000	-115.0000	  12.5000	  -0.1087	  -2.5000	   0.2717	  12.4675	  15.0412	
  -2.5000	-115.0000	  12.5000	  -0.0543	  -2.5000	   0.2717	  13.7937	  19.3906	
   0.0000	-115.0000	  12.5000	   0.0000	  -2.5000	   0.2717	  15.7029	  23.7131	
   2.5000	-115.0000	  12.5000	   0.0543	  -2.5000	   0.2717	  19.8462	  27.9325	
   5.0000	-115.0000	  12.5000	   0.1087	  -2.5000	   0.2717	  24.5725	  32.1250	
   7.5000	-115.0000	  12.5000	   0.1630	  -2.5000	   0.2717	  29.2988	  36.3175	
  10.0000	-115.0000	  12.5000	   0.2174	  -2.5000	   0.2717	  33.7486	  39.5099	
  12.5000	-115.0000	  12.5000	   0.2717	  -2.5000	   0.2717	  37.1388	  38.8688	
  15.0000	-115.0000	  12.5000	   0.3261	  -2.5000	   0.2717	  40.2525	  37.2275	
  17.5000	-115.0000	  12.5000	   0.3804	  -2.5000	   0.2717	  43.3662	  35.5862	
  20.0000	-115.0000	  12.5000	   0.4348	  -2.5000	   0.2717	  46.4800	  33.9450	
 -20.0000	-115.0000	  15.0000	  -0.4348	  -2.5000	   0.3261	   9.3800	   5.1600	
 -17.5000	-115.0000	  15.0000	  -0.3804	  -2.5000	   0.3261	   9.4969	   5.4148	
 -15.0000	-115.0000	  15.0000	  -0.3261	  -2.5000	   0.3261	   9.6511	   5.6778	
 -12.5000	-115.0000	  15.0000	  -0.2717	  -2.5000	   0.3261	   9.8002	   5.9235	
 -10.0000	-115.0000	  15.0000	  -0.2174	  -2.5000	   0.3261	   9.9000	   6.1200	
  -7.5000	-115.0000	  15.0000	  -0.1630	  -2.5000	   0.3261	  10.6817	   8.4730	
  -5.0000	-115.0000	  15.0000	  -0.1087	  -2.5000	   0.3261	  11.4875	  11.0061	
  -2.5000	-115.0000	  15.0000	  -0.0543	  -2.5000	   0.3261	  12.1413	  13.0633	
   0.0000	-115.0000	  15.0000	   0.0000	  -2.5000	   0.3261	  12.4100	  13.8100	
   2.5000	-115.0000	  15.0000	   0.0543	  -2.5000	   0.3261	  15.4536	  18.8097	
   5.0000	-115.0000	  15.0000	   0.1087	  -2.5000	   0.3261	  18.4039	  22.7486	
   7.5000	-115.0000	  15.0000	   0.1630	  -2.5000	   0.3261	  20.6186	  25.7122	
  10.0000	-115.0000	  15.0000	   0.2174	  -2.5000	   0.3261	  21.1800	  27.4200	
  12.5000	-115.0000	  15.0000	   0.2717	  -2.5000	   0.3261	  27.2764	  29.9614	
  15.0000	-115.0000	  15.0000	   0.3261	  -2.5000	   0.3261	  31.7922	  31.0081	
  17.5000	-115.0000	  15.0000	   0.3804	  -2.5000	   0.3261	  35.4270	  31.5573	
  20.0000	-115.0000	  15.0000	   0.4348	  -2.5000	   0.3261	  38.5500	  32.4200	
 -20.0000	-115.0000	  17.5000	  -0.4348	  -2.5000	   0.3804	   9.3150	   5.1800	
 -17.5000	-115.0000	  17.5000	  -0.3804	  -2.5000	   0.3804	   9.5581	   5.4437	
 -15.0000	-115.0000	  17.5000	  -0.3261	  -2.5000	   0.3804	   9.8012	   5.7075	
 -12.5000	-115.0000	  17.5000	  -0.2717	  -2.5000	   0.3804	  10.0444	   5.9713	
 -10.0000	-115.0000	  17.5000	  -0.2174	  -2.5000	   0.3804	  10.3359	   6.4760	
  -7.5000	-115.0000	  17.5000	  -0.1630	  -2.5000	   0.3804	  10.8131	   7.9044	
  -5.0000	-115.0000	  17.5000	  -0.1087	  -2.5000	   0.3804	  11.3387	   9.5737	
  -2.5000	-115.0000	  17.5000	  -0.0543	  -2.5000	   0.3804	  11.8644	  11.2431	
   0.0000	-115.0000	  17.5000	   0.0000	  -2.5000	   0.3804	  12.6314	  13.1229	
   2.5000	-115.0000	  17.5000	   0.0543	  -2.5000	   0.3804	  14.3238	  15.8094	
   5.0000	-115.0000	  17.5000	   0.1087	  -2.5000	   0.3804	  16.2575	  18.7062	
   7.5000	-115.0000	  17.5000	   0.1630	  -2.5000	   0.3804	  18.1913	  21.6031	
  10.0000	-115.0000	  17.5000	   0.2174	  -2.5000	   0.3804	  20.4814	  24.2613	
  12.5000	-115.0000	  17.5000	   0.2717	  -2.5000	   0.3804	  24.1375	  26.0044	
  15.0000	-115.0000	  17.5000	   0.3261	  -2.5000	   0.3804	  28.1500	  27.5087	
  17.5000	-115.0000	  17.5000	   0.3804	  -2.5000	   0.3804	  32.1625	  29.0131	
  20.0000	-115.0000	  17.5000	   0.4348	  -2.5000	   0.3804	  36.1750	  30.5175	
 -20.0000	-115.0000	  20.0000	  -0.4348	  -2.5000	   0.4348	   9.2500	   5.2000	
 -17.5000	-115.0000	  20.0000	  -0.3804	  -2.5000	   0.4348	   9.6062	   5.4875	
 -15.0000	-115.0000	  20.0000	  -0.3261	  -2.5000	   0.4348	   9.9625	   5.7750	
 -12.5000	-115.0000	  20.0000	  -0.2717	  -2.5000	   0.4348	  10.3187	   6.0625	
 -10.0000	-115.0000	  20.0000	  -0.2174	  -2.5000	   0.4348	  10.6900	   6.6008	
  -7.5000	-115.0000	  20.0000	  -0.1630	  -2.5000	   0.4348	  11.0987	   7.7663	
  -5.0000	-115.0000	  20.0000	  -0.1087	  -2.5000	   0.4348	  11.5225	   9.1825	
  -2.5000	-115.0000	  20.0000	  -0.0543	  -2.5000	   0.4348	  11.9462	  10.5987	
   0.0000	-115.0000	  20.0000	   0.0000	  -2.5000	   0.4348	  12.6481	  12.2317	
   2.5000	-115.0000	  20.0000	   0.0543	  -2.5000	   0.4348	  14.0450	  14.4063	
   5.0000	-115.0000	  20.0000	   0.1087	  -2.5000	   0.4348	  15.7200	  16.7975	
   7.5000	-115.0000	  20.0000	   0.1630	  -2.5000	   0.4348	  17.3950	  19.1887	
  10.0000	-115.0000	  20.0000	   0.2174	  -2.5000	   0.4348	  19.5161	  21.4394	
  12.5000	-115.0000	  20.0000	   0.2717	  -2.5000	   0.4348	  22.7525	  23.3388	
  15.0000	-115.0000	  20.0000	   0.3261	  -2.5000	   0.4348	  26.4350	  25.0975	
  17.5000	-115.0000	  20.0000	   0.3804	  -2.5000	   0.4348	  30.1175	  26.8563	
  20.0000	-115.0000	  20.0000	   0.4348	  -2.5000	   0.4348	  33.8000	  28.6150	
 -20.0000	-115.0000	  22.5000	  -0.4348	  -2.5000	   0.4891	   9.1850	   5.2200	
 -17.5000	-115.0000	  22.5000	  -0.3804	  -2.5000	   0.4891	   9.6544	   5.5312	
 -15.0000	-115.0000	  22.5000	  -0.3261	  -2.5000	   0.4891	  10.1237	   5.8425	
 -12.5000	-115.0000	  22.5000	  -0.2717	  -2.5000	   0.4891	  10.5931	   6.1537	
 -10.0000	-115.0000	  22.5000	  -0.2174	  -2.5000	   0.4891	  11.0372	   6.6110	
  -7.5000	-115.0000	  22.5000	  -0.1630	  -2.5000	   0.4891	  11.3844	   7.6281	
  -5.0000	-115.0000	  22.5000	  -0.1087	  -2.5000	   0.4891	  11.7063	   8.7912	
  -2.5000	-115.0000	  22.5000	  -0.0543	  -2.5000	   0.4891	  12.0281	   9.9544	
   0.0000	-115.0000	  22.5000	   0.0000	  -2.5000	   0.4891	  12.5376	  11.2414	
   2.5000	-115.0000	  22.5000	   0.0543	  -2.5000	   0.4891	  13.7662	  13.0031	
   5.0000	-115.0000	  22.5000	   0.1087	  -2.5000	   0.4891	  15.1825	  14.8888	
   7.5000	-115.0000	  22.5000	   0.1630	  -2.5000	   0.4891	  16.5988	  16.7744	
  10.0000	-115.0000	  22.5000	   0.2174	  -2.5000	   0.4891	  18.3469	  18.6819	
  12.5000	-115.0000	  22.5000	   0.2717	  -2.5000	   0.4891	  21.3675	  20.6731	
  15.0000	-115.0000	  22.5000	   0.3261	  -2.5000	   0.4891	  24.7200	  22.6863	
  17.5000	-115.0000	  22.5000	   0.3804	  -2.5000	   0.4891	  28.0725	  24.6994	
  20.0000	-115.0000	  22.5000	   0.4348	  -2.5000	   0.4891	  31.4250	  26.7125	
 -20.0000	-115.0000	  25.0000	  -0.4348	  -2.5000	   0.5435	   9.1200	   5.2400	
 -17.5000	-115.0000	  25.0000	  -0.3804	  -2.5000	   0.5435	   9.7002	   5.5858	
 -15.0000	-115.0000	  25.0000	  -0.3261	  -2.5000	   0.5435	  10.2675	   5.9192	
 -12.5000	-115.0000	  25.0000	  -0.2717	  -2.5000	   0.5435	  10.8428	   6.2483	
 -10.0000	-115.0000	  25.0000	  -0.2174	  -2.5000	   0.5435	  11.4500	   6.5800	
  -7.5000	-115.0000	  25.0000	  -0.1630	  -2.5000	   0.5435	  11.6562	   7.5211	
  -5.0000	-115.0000	  25.0000	  -0.1087	  -2.5000	   0.5435	  11.9008	   8.4811	
  -2.5000	-115.0000	  25.0000	  -0.0543	  -2.5000	   0.5435	  12.1405	   9.4041	
   0.0000	-115.0000	  25.0000	   0.0000	  -2.5000	   0.5435	  12.3300	  10.2200	
   2.5000	-115.0000	  25.0000	   0.0543	  -2.5000	   0.5435	  13.5766	  11.8021	
   5.0000	-115.0000	  25.0000	   0.1087	  -2.5000	   0.5435	  14.8078	  13.3411	
   7.5000	-115.0000	  25.0000	   0.1630	  -2.5000	   0.5435	  15.9645	  14.7151	
  10.0000	-115.0000	  25.0000	   0.2174	  -2.5000	   0.5435	  16.9600	  15.7400	
  12.5000	-115.0000	  25.0000	   0.2717	  -2.5000	   0.5435	  20.1903	  18.3467	
  15.0000	-115.0000	  25.0000	   0.3261	  -2.5000	   0.5435	  23.2864	  20.5950	
  17.5000	-115.0000	  25.0000	   0.3804	  -2.5000	   0.5435	  26.2539	  22.6970	
  20.0000	-115.0000	  25.0000	   0.4348	  -2.5000	   0.5435	  29.0500	  24.8100	
 -20.0000	-115.0000	  27.5000	  -0.4348	  -2.5000	   0.5978	   9.1075	   5.3450	
 -17.5000	-115.0000	  27.5000	  -0.3804	  -2.5000	   0.5978	   9.7375	   5.6819	
 -15.0000	-115.0000	  27.5000	  -0.3261	  -2.5000	   0.5978	  10.3675	   6.0187	
 -12.5000	-115.0000	  27.5000	  -0.2717	  -2.5000	   0.5978	  10.9975	   6.3556	
 -10.0000	-115.0000	  27.5000	  -0.2174	  -2.5000	   0.5978	  11.5619	   6.7789	
  -7.5000	-115.0000	  27.5000	  -0.1630	  -2.5000	   0.5978	  11.8750	   7.5331	
  -5.0000	-115.0000	  27.5000	  -0.1087	  -2.5000	   0.5978	  12.1225	   8.3738	
  -2.5000	-115.0000	  27.5000	  -0.0543	  -2.5000	   0.5978	  12.3700	   9.2144	
   0.0000	-115.0000	  27.5000	   0.0000	  -2.5000	   0.5978	  12.7656	  10.1373	
   2.5000	-115.0000	  27.5000	   0.0543	  -2.5000	   0.5978	  13.7287	  11.3756	
   5.0000	-115.0000	  27.5000	   0.1087	  -2.5000	   0.5978	  14.8400	  12.6962	
   7.5000	-115.0000	  27.5000	   0.1630	  -2.5000	   0.5978	  15.9513	  14.0169	
  10.0000	-115.0000	  27.5000	   0.2174	  -2.5000	   0.5978	  17.3429	  15.4511	
  12.5000	-115.0000	  27.5000	   0.2717	  -2.5000	   0.5978	  19.8094	  17.3206	
  15.0000	-115.0000	  27.5000	   0.3261	  -2.5000	   0.5978	  22.5562	  19.3037	
  17.5000	-115.0000	  27.5000	   0.3804	  -2.5000	   0.5978	  25.3031	  21.2869	
  20.0000	-115.0000	  27.5000	   0.4348	  -2.5000	   0.5978	  28.0500	  23.2700	
 -20.0000	-115.0000	  30.0000	  -0.4348	  -2.5000	   0.6522	   9.0950	   5.4500	
 -17.5000	-115.0000	  30.0000	  -0.3804	  -2.5000	   0.6522	   9.7725	   5.7888	
 -15.0000	-115.0000	  30.0000	  -0.3261	  -2.5000	   0.6522	  10.4500	   6.1275	
 -12.5000	-115.0000	  30.0000	  -0.2717	  -2.5000	   0.6522	  11.1275	   6.4662	
 -10.0000	-115.0000	  30.0000	  -0.2174	  -2.5000	   0.6522	  11.7156	   6.9011	
  -7.5000	-115.0000	  30.0000	  -0.1630	  -2.5000	   0.6522	  12.0800	   7.5762	
  -5.0000	-115.0000	  30.0000	  -0.1087	  -2.5000	   0.6522	  12.3550	   8.3475	
  -2.5000	-115.0000	  30.0000	  -0.0543	  -2.5000	   0.6522	  12.6300	   9.1188	
   0.0000	-115.0000	  30.0000	   0.0000	  -2.5000	   0.6522	  13.0806	   9.9989	
   2.5000	-115.0000	  30.0000	   0.0543	  -2.5000	   0.6522	  13.9700	  11.1513	
   5.0000	-115.0000	  30.0000	   0.1087	  -2.5000	   0.6522	  15.0350	  12.4125	
   7.5000	-115.0000	  30.0000	   0.1630	  -2.5000	   0.6522	  16.1000	  13.6737	
  10.0000	-115.0000	  30.0000	   0.2174	  -2.5000	   0.6522	  17.4775	  15.0322	
  12.5000	-115.0000	  30.0000	   0.2717	  -2.5000	   0.6522	  19.6363	  16.6337	
  15.0000	-115.0000	  30.0000	   0.3261	  -2.5000	   0.6522	  22.1075	  18.3325	
  17.5000	-115.0000	  30.0000	   0.3804	  -2.5000	   0.6522	  24.5788	  20.0312	
  20.0000	-115.0000	  30.0000	   0.4348	  -2.5000	   0.6522	  27.0500	  21.7300	
 -20.0000	-115.0000	  32.5000	  -0.4348	  -2.5000	   0.7065	   9.0825	   5.5550	
 -17.5000	-115.0000	  32.5000	  -0.3804	  -2.5000	   0.7065	   9.8075	   5.8956	
 -15.0000	-115.0000	  32.5000	  -0.3261	  -2.5000	   0.7065	  10.5325	   6.2363	
 -12.5000	-115.0000	  32.5000	  -0.2717	  -2.5000	   0.7065	  11.2575	   6.5769	
 -10.0000	-115.0000	  32.5000	  -0.2174	  -2.5000	   0.7065	  11.9101	   6.9794	
  -7.5000	-115.0000	  32.5000	  -0.1630	  -2.5000	   0.7065	  12.2850	   7.6194	
  -5.0000	-115.0000	  32.5000	  -0.1087	  -2.5000	   0.7065	  12.5875	   8.3212	
  -2.5000	-115.0000	  32.5000	  -0.0543	  -2.5000	   0.7065	  12.8900	   9.0231	
   0.0000	-115.0000	  32.5000	   0.0000	  -2.5000	   0.7065	  13.3153	   9.8107	
   2.5000	-115.0000	  32.5000	   0.0543	  -2.5000	   0.7065	  14.2112	  10.9269	
   5.0000	-115.0000	  32.5000	   0.1087	  -2.5000	   0.7065	  15.2300	  12.1288	
   7.5000	-115.0000	  32.5000	   0.1630	  -2.5000	   0.7065	  16.2488	  13.3306	
  10.0000	-115.0000	  32.5000	   0.2174	  -2.5000	   0.7065	  17.4693	  14.5689	
  12.5000	-115.0000	  32.5000	   0.2717	  -2.5000	   0.7065	  19.4631	  15.9469	
  15.0000	-115.0000	  32.5000	   0.3261	  -2.5000	   0.7065	  21.6588	  17.3612	
  17.5000	-115.0000	  32.5000	   0.3804	  -2.5000	   0.7065	  23.8544	  18.7756	
  20.0000	-115.0000	  32.5000	   0.4348	  -2.5000	   0.7065	  26.0500	  20.1900	
 -20.0000	-115.0000	  35.0000	  -0.4348	  -2.5000	   0.7609	   9.0700	   5.6600	
 -17.5000	-115.0000	  35.0000	  -0.3804	  -2.5000	   0.7609	   9.7256	   5.9238	
 -15.0000	-115.0000	  35.0000	  -0.3261	  -2.5000	   0.7609	  10.5164	   6.2831	
 -12.5000	-115.0000	  35.0000	  -0.2717	  -2.5000	   0.7609	  11.3522	   6.6707	
 -10.0000	-115.0000	  35.0000	  -0.2174	  -2.5000	   0.7609	  12.1600	   7.0300	
  -7.5000	-115.0000	  35.0000	  -0.1630	  -2.5000	   0.7609	  12.5009	   7.6901	
  -5.0000	-115.0000	  35.0000	  -0.1087	  -2.5000	   0.7609	  12.8411	   8.3483	
  -2.5000	-115.0000	  35.0000	  -0.0543	  -2.5000	   0.7609	  13.1716	   8.9821	
   0.0000	-115.0000	  35.0000	   0.0000	  -2.5000	   0.7609	  13.4800	   9.5600	
   2.5000	-115.0000	  35.0000	   0.0543	  -2.5000	   0.7609	  14.4754	  10.7633	
   5.0000	-115.0000	  35.0000	   0.1087	  -2.5000	   0.7609	  15.4494	  11.9142	
   7.5000	-115.0000	  35.0000	   0.1630	  -2.5000	   0.7609	  16.4123	  13.0335	
  10.0000	-115.0000	  35.0000	   0.2174	  -2.5000	   0.7609	  17.3700	  14.1300	
  12.5000	-115.0000	  35.0000	   0.2717	  -2.5000	   0.7609	  19.3296	  15.3263	
  15.0000	-115.0000	  35.0000	   0.3261	  -2.5000	   0.7609	  21.2989	  16.5119	
  17.5000	-115.0000	  35.0000	   0.3804	  -2.5000	   0.7609	  23.2275	  17.6418	
  20.0000	-115.0000	  35.0000	   0.4348	  -2.5000	   0.7609	  25.0500	  18.6500	
 -20.0000	-115.0000	  37.5000	  -0.4348	  -2.5000	   0.8152	   8.1375	   5.1250	
 -17.5000	-115.0000	  37.5000	  -0.3804	  -2.5000	   0.8152	   9.1956	   5.6500	
 -15.0000	-115.0000	  37.5000	  -0.3261	  -2.5000	   0.8152	  10.2538	   6.1750	
 -12.5000	-115.0000	  37.5000	  -0.2717	  -2.5000	   0.8152	  11.3119	   6.7000	
 -10.0000	-115.0000	  37.5000	  -0.2174	  -2.5000	   0.8152	  12.2553	   7.2450	
  -7.5000	-115.0000	  37.5000	  -0.1630	  -2.5000	   0.8152	  12.7587	   7.8669	
  -5.0000	-115.0000	  37.5000	  -0.1087	  -2.5000	   0.8152	  13.1475	   8.5087	
  -2.5000	-115.0000	  37.5000	  -0.0543	  -2.5000	   0.8152	  13.5363	   9.1506	
   0.0000	-115.0000	  37.5000	   0.0000	  -2.5000	   0.8152	  14.0131	   9.8608	
   2.5000	-115.0000	  37.5000	   0.0543	  -2.5000	   0.8152	  14.8275	  10.8325	
   5.0000	-115.0000	  37.5000	   0.1087	  -2.5000	   0.8152	  15.7300	  11.8725	
   7.5000	-115.0000	  37.5000	   0.1630	  -2.5000	   0.8152	  16.6325	  12.9125	
  10.0000	-115.0000	  37.5000	   0.2174	  -2.5000	   0.8152	  17.6911	  13.9469	
  12.5000	-115.0000	  37.5000	   0.2717	  -2.5000	   0.8152	  19.3481	  14.9600	
  15.0000	-115.0000	  37.5000	   0.3261	  -2.5000	   0.8152	  21.1613	  15.9675	
  17.5000	-115.0000	  37.5000	   0.3804	  -2.5000	   0.8152	  22.9744	  16.9750	
  20.0000	-115.0000	  37.5000	   0.4348	  -2.5000	   0.8152	  24.7875	  17.9825	
 -20.0000	-115.0000	  40.0000	  -0.4348	  -2.5000	   0.8696	   7.2050	   4.5900	
 -17.5000	-115.0000	  40.0000	  -0.3804	  -2.5000	   0.8696	   8.5487	   5.2975	
 -15.0000	-115.0000	  40.0000	  -0.3261	  -2.5000	   0.8696	   9.8925	   6.0050	
 -12.5000	-115.0000	  40.0000	  -0.2717	  -2.5000	   0.8696	  11.2362	   6.7125	
 -10.0000	-115.0000	  40.0000	  -0.2174	  -2.5000	   0.8696	  12.3808	   7.4075	
  -7.5000	-115.0000	  40.0000	  -0.1630	  -2.5000	   0.8696	  13.0275	   8.0712	
  -5.0000	-115.0000	  40.0000	  -0.1087	  -2.5000	   0.8696	  13.4750	   8.7225	
  -2.5000	-115.0000	  40.0000	  -0.0543	  -2.5000	   0.8696	  13.9225	   9.3738	
   0.0000	-115.0000	  40.0000	   0.0000	  -2.5000	   0.8696	  14.4556	  10.0886	
   2.5000	-115.0000	  40.0000	   0.0543	  -2.5000	   0.8696	  15.2025	  10.9625	
   5.0000	-115.0000	  40.0000	   0.1087	  -2.5000	   0.8696	  16.0350	  11.9000	
   7.5000	-115.0000	  40.0000	   0.1630	  -2.5000	   0.8696	  16.8675	  12.8375	
  10.0000	-115.0000	  40.0000	   0.2174	  -2.5000	   0.8696	  17.8942	  13.7633	
  12.5000	-115.0000	  40.0000	   0.2717	  -2.5000	   0.8696	  19.4062	  14.6600	
  15.0000	-115.0000	  40.0000	   0.3261	  -2.5000	   0.8696	  21.1125	  15.5450	
  17.5000	-115.0000	  40.0000	   0.3804	  -2.5000	   0.8696	  22.8188	  16.4300	
  20.0000	-115.0000	  40.0000	   0.4348	  -2.5000	   0.8696	  24.5250	  17.3150	
 -20.0000	-115.0000	  42.5000	  -0.4348	  -2.5000	   0.9239	   6.2725	   4.0550	
 -17.5000	-115.0000	  42.5000	  -0.3804	  -2.5000	   0.9239	   7.9019	   4.9450	
 -15.0000	-115.0000	  42.5000	  -0.3261	  -2.5000	   0.9239	   9.5312	   5.8350	
 -12.5000	-115.0000	  42.5000	  -0.2717	  -2.5000	   0.9239	  11.1606	   6.7250	
 -10.0000	-115.0000	  42.5000	  -0.2174	  -2.5000	   0.9239	  12.5975	   7.5757	
  -7.5000	-115.0000	  42.5000	  -0.1630	  -2.5000	   0.9239	  13.2963	   8.2756	
  -5.0000	-115.0000	  42.5000	  -0.1087	  -2.5000	   0.9239	  13.8025	   8.9362	
  -2.5000	-115.0000	  42.5000	  -0.0543	  -2.5000	   0.9239	  14.3087	   9.5969	
   0.0000	-115.0000	  42.5000	   0.0000	  -2.5000	   0.9239	  14.8589	  10.2874	
   2.5000	-115.0000	  42.5000	   0.0543	  -2.5000	   0.9239	  15.5775	  11.0925	
   5.0000	-115.0000	  42.5000	   0.1087	  -2.5000	   0.9239	  16.3400	  11.9275	
   7.5000	-115.0000	  42.5000	   0.1630	  -2.5000	   0.9239	  17.1025	  12.7625	
  10.0000	-115.0000	  42.5000	   0.2174	  -2.5000	   0.9239	  18.0085	  13.5851	
  12.5000	-115.0000	  42.5000	   0.2717	  -2.5000	   0.9239	  19.4644	  14.3600	
  15.0000	-115.0000	  42.5000	   0.3261	  -2.5000	   0.9239	  21.0637	  15.1225	
  17.5000	-115.0000	  42.5000	   0.3804	  -2.5000	   0.9239	  22.6631	  15.8850	
  20.0000	-115.0000	  42.5000	   0.4348	  -2.5000	   0.9239	  24.2625	  16.6475	
 -20.0000	-115.0000	  45.0000	  -0.4348	  -2.5000	   0.9783	   5.3400	   3.5200	
 -17.5000	-115.0000	  45.0000	  -0.3804	  -2.5000	   0.9783	   7.4098	   4.7246	
 -15.0000	-115.0000	  45.0000	  -0.3261	  -2.5000	   0.9783	   9.2303	   5.7597	
 -12.5000	-115.0000	  45.0000	  -0.2717	  -2.5000	   0.9783	  11.0232	   6.7515	
 -10.0000	-115.0000	  45.0000	  -0.2174	  -2.5000	   0.9783	  13.0000	   7.8100	
  -7.5000	-115.0000	  45.0000	  -0.1630	  -2.5000	   0.9783	  13.3835	   8.4277	
  -5.0000	-115.0000	  45.0000	  -0.1087	  -2.5000	   0.9783	  13.8800	   9.0728	
  -2.5000	-115.0000	  45.0000	  -0.0543	  -2.5000	   0.9783	  14.4908	   9.7531	
   0.0000	-115.0000	  45.0000	   0.0000	  -2.5000	   0.9783	  15.2600	  10.4900	
   2.5000	-115.0000	  45.0000	   0.0543	  -2.5000	   0.9783	  15.7315	  11.1502	
   5.0000	-115.0000	  45.0000	   0.1087	  -2.5000	   0.9783	  16.3514	  11.8636	
   7.5000	-115.0000	  45.0000	   0.1630	  -2.5000	   0.9783	  17.1055	  12.6188	
  10.0000	-115.0000	  45.0000	   0.2174	  -2.5000	   0.9783	  18.0300	  13.4200	
  12.5000	-115.0000	  45.0000	   0.2717	  -2.5000	   0.9783	  19.2430	  13.9892	
  15.0000	-115.0000	  45.0000	   0.3261	  -2.5000	   0.9783	  20.5981	  14.6031	
  17.5000	-115.0000	  45.0000	   0.3804	  -2.5000	   0.9783	  22.1437	  15.2612	
  20.0000	-115.0000	  45.0000	   0.4348	  -2.5000	   0.9783	  24.0000	  15.9800	
 -20.0000	-115.0000	  47.5000	  -0.4348	  -2.5000	   1.0326	   5.9425	   4.1000	
 -17.5000	-115.0000	  47.5000	  -0.3804	  -2.5000	   1.0326	   7.5113	   5.0106	
 -15.0000	-115.0000	  47.5000	  -0.3261	  -2.5000	   1.0326	   9.0800	   5.9212	
 -12.5000	-115.0000	  47.5000	  -0.2717	  -2.5000	   1.0326	  10.6488	   6.8319	
 -10.0000	-115.0000	  47.5000	  -0.2174	  -2.5000	   1.0326	  12.0441	   7.6956	
  -7.5000	-115.0000	  47.5000	  -0.1630	  -2.5000	   1.0326	  12.7750	   8.3794	
  -5.0000	-115.0000	  47.5000	  -0.1087	  -2.5000	   1.0326	  13.3325	   9.0162	
  -2.5000	-115.0000	  47.5000	  -0.0543	  -2.5000	   1.0326	  13.8900	   9.6531	
   0.0000	-115.0000	  47.5000	   0.0000	  -2.5000	   1.0326	  14.4532	  10.2906	
   2.5000	-115.0000	  47.5000	   0.0543	  -2.5000	   1.0326	  15.0381	  10.9306	
   5.0000	-115.0000	  47.5000	   0.1087	  -2.5000	   1.0326	  15.6288	  11.5712	
   7.5000	-115.0000	  47.5000	   0.1630	  -2.5000	   1.0326	  16.2194	  12.2119	
  10.0000	-115.0000	  47.5000	   0.2174	  -2.5000	   1.0326	  16.9042	  12.8274	
  12.5000	-115.0000	  47.5000	   0.2717	  -2.5000	   1.0326	  17.9500	  13.3469	
  15.0000	-115.0000	  47.5000	   0.3261	  -2.5000	   1.0326	  19.0900	  13.8413	
  17.5000	-115.0000	  47.5000	   0.3804	  -2.5000	   1.0326	  20.2300	  14.3356	
  20.0000	-115.0000	  47.5000	   0.4348	  -2.5000	   1.0326	  21.3700	  14.8300	
 -20.0000	-115.0000	  50.0000	  -0.4348	  -2.5000	   1.0870	   6.5450	   4.6800	
 -17.5000	-115.0000	  50.0000	  -0.3804	  -2.5000	   1.0870	   7.7675	   5.4287	
 -15.0000	-115.0000	  50.0000	  -0.3261	  -2.5000	   1.0870	   8.9900	   6.1775	
 -12.5000	-115.0000	  50.0000	  -0.2717	  -2.5000	   1.0870	  10.2125	   6.9262	
 -10.0000	-115.0000	  50.0000	  -0.2174	  -2.5000	   1.0870	  11.2856	   7.6428	
  -7.5000	-115.0000	  50.0000	  -0.1630	  -2.5000	   1.0870	  11.9850	   8.2787	
  -5.0000	-115.0000	  50.0000	  -0.1087	  -2.5000	   1.0870	  12.5350	   8.8825	
  -2.5000	-115.0000	  50.0000	  -0.0543	  -2.5000	   1.0870	  13.0850	   9.4863	
   0.0000	-115.0000	  50.0000	   0.0000	  -2.5000	   1.0870	  13.6214	  10.0778	
   2.5000	-115.0000	  50.0000	   0.0543	  -2.5000	   1.0870	  14.1237	  10.6387	
   5.0000	-115.0000	  50.0000	   0.1087	  -2.5000	   1.0870	  14.6125	  11.1875	
   7.5000	-115.0000	  50.0000	   0.1630	  -2.5000	   1.0870	  15.1013	  11.7363	
  10.0000	-115.0000	  50.0000	   0.2174	  -2.5000	   1.0870	  15.6564	  12.2406	
  12.5000	-115.0000	  50.0000	   0.2717	  -2.5000	   1.0870	  16.3775	  12.6337	
  15.0000	-115.0000	  50.0000	   0.3261	  -2.5000	   1.0870	  17.1650	  12.9825	
  17.5000	-115.0000	  50.0000	   0.3804	  -2.5000	   1.0870	  17.9525	  13.3313	
  20.0000	-115.0000	  50.0000	   0.4348	  -2.5000	   1.0870	  18.7400	  13.6800	
 -20.0000	-115.0000	  52.5000	  -0.4348	  -2.5000	   1.1413	   7.1475	   5.2600	
 -17.5000	-115.0000	  52.5000	  -0.3804	  -2.5000	   1.1413	   8.0237	   5.8469	
 -15.0000	-115.0000	  52.5000	  -0.3261	  -2.5000	   1.1413	   8.9000	   6.4337	
 -12.5000	-115.0000	  52.5000	  -0.2717	  -2.5000	   1.1413	   9.7763	   7.0206	
 -10.0000	-115.0000	  52.5000	  -0.2174	  -2.5000	   1.1413	  10.5953	   7.6047	
  -7.5000	-115.0000	  52.5000	  -0.1630	  -2.5000	   1.1413	  11.1950	   8.1781	
  -5.0000	-115.0000	  52.5000	  -0.1087	  -2.5000	   1.1413	  11.7375	   8.7488	
  -2.5000	-115.0000	  52.5000	  -0.0543	  -2.5000	   1.1413	  12.2800	   9.3194	
   0.0000	-115.0000	  52.5000	   0.0000	  -2.5000	   1.1413	  12.7958	   9.8705	
   2.5000	-115.0000	  52.5000	   0.0543	  -2.5000	   1.1413	  13.2094	  10.3469	
   5.0000	-115.0000	  52.5000	   0.1087	  -2.5000	   1.1413	  13.5963	  10.8038	
   7.5000	-115.0000	  52.5000	   0.1630	  -2.5000	   1.1413	  13.9831	  11.2606	
  10.0000	-115.0000	  52.5000	   0.2174	  -2.5000	   1.1413	  14.3782	  11.6740	
  12.5000	-115.0000	  52.5000	   0.2717	  -2.5000	   1.1413	  14.8050	  11.9206	
  15.0000	-115.0000	  52.5000	   0.3261	  -2.5000	   1.1413	  15.2400	  12.1237	
  17.5000	-115.0000	  52.5000	   0.3804	  -2.5000	   1.1413	  15.6750	  12.3269	
  20.0000	-115.0000	  52.5000	   0.4348	  -2.5000	   1.1413	  16.1100	  12.5300	
 -20.0000	-115.0000	  55.0000	  -0.4348	  -2.5000	   1.1957	   7.7500	   5.8400	
 -17.5000	-115.0000	  55.0000	  -0.3804	  -2.5000	   1.1957	   8.0951	   6.1766	
 -15.0000	-115.0000	  55.0000	  -0.3261	  -2.5000	   1.1957	   8.6139	   6.5875	
 -12.5000	-115.0000	  55.0000	  -0.2717	  -2.5000	   1.1957	   9.2224	   7.0452	
 -10.0000	-115.0000	  55.0000	  -0.2174	  -2.5000	   1.1957	   9.8700	   7.5400	
  -7.5000	-115.0000	  55.0000	  -0.1630	  -2.5000	   1.1957	  10.2949	   7.9999	
  -5.0000	-115.0000	  55.0000	  -0.1087	  -2.5000	   1.1957	  10.7633	   8.4922	
  -2.5000	-115.0000	  55.0000	  -0.0543	  -2.5000	   1.1957	  11.3126	   9.0406	
   0.0000	-115.0000	  55.0000	   0.0000	  -2.5000	   1.1957	  12.0100	   9.6900	
   2.5000	-115.0000	  55.0000	   0.0543	  -2.5000	   1.1957	  12.0977	   9.9162	
   5.0000	-115.0000	  55.0000	   0.1087	  -2.5000	   1.1957	  12.3131	  10.2275	
   7.5000	-115.0000	  55.0000	   0.1630	  -2.5000	   1.1957	  12.6504	  10.6268	
  10.0000	-115.0000	  55.0000	   0.2174	  -2.5000	   1.1957	  13.1500	  11.1500	
  12.5000	-115.0000	  55.0000	   0.2717	  -2.5000	   1.1957	  13.0499	  11.0408	
  15.0000	-115.0000	  55.0000	   0.3261	  -2.5000	   1.1957	  13.1311	  11.0506	
  17.5000	-115.0000	  55.0000	   0.3804	  -2.5000	   1.1957	  13.2964	  11.1584	
  20.0000	-115.0000	  55.0000	   0.4348	  -2.5000	   1.1957	  13.4800	  11.3800	
 -20.0000	-115.0000	  57.5000	  -0.4348	  -2.5000	   1.2500	   7.0775	   5.8500	
 -17.5000	-115.0000	  57.5000	  -0.3804	  -2.5000	   1.2500	   7.4575	   6.1675	
 -15.0000	-115.0000	  57.5000	  -0.3261	  -2.5000	   1.2500	   7.8375	   6.4850	
 -12.5000	-115.0000	  57.5000	  -0.2717	  -2.5000	   1.2500	   8.2175	   6.8025	
 -10.0000	-115.0000	  57.5000	  -0.2174	  -2.5000	   1.2500	   8.5966	   7.1349	
  -7.5000	-115.0000	  57.5000	  -0.1630	  -2.5000	   1.2500	   8.9725	   7.5244	
  -5.0000	-115.0000	  57.5000	  -0.1087	  -2.5000	   1.2500	   9.3475	   7.9288	