Variables = "x [mm]"	"y [mm]"	"z [mm]"	"x/B"	"y/B"	"z/B"	"C*"	"C*std"	
Zone T = "East_y=-31mm_Tec" I=17 J=25 F=POINT
 -20.0000	 -31.0000	   5.0000	  -0.4348	  -0.6739	   0.1087	  18.0500	  22.0300	
 -17.5000	 -31.0000	   5.0000	  -0.3804	  -0.6739	   0.1087	  22.7525	  31.2575	
 -15.0000	 -31.0000	   5.0000	  -0.3261	  -0.6739	   0.1087	  27.4550	  40.4850	
 -12.5000	 -31.0000	   5.0000	  -0.2717	  -0.6739	   0.1087	  32.1575	  49.7125	
 -10.0000	 -31.0000	   5.0000	  -0.2174	  -0.6739	   0.1087	  36.8600	  58.9400	
  -7.5000	 -31.0000	   5.0000	  -0.1630	  -0.6739	   0.1087	  46.9750	  73.0600	
  -5.0000	 -31.0000	   5.0000	  -0.1087	  -0.6739	   0.1087	  57.0900	  87.1800	
  -2.5000	 -31.0000	   5.0000	  -0.0543	  -0.6739	   0.1087	  67.2050	 101.3000	
   0.0000	 -31.0000	   5.0000	   0.0000	  -0.6739	   0.1087	  77.3200	 115.4200	
   2.5000	 -31.0000	   5.0000	   0.0543	  -0.6739	   0.1087	  82.2250	 109.7550	
   5.0000	 -31.0000	   5.0000	   0.1087	  -0.6739	   0.1087	  87.1300	 104.0900	
   7.5000	 -31.0000	   5.0000	   0.1630	  -0.6739	   0.1087	  92.0350	  98.4250	
  10.0000	 -31.0000	   5.0000	   0.2174	  -0.6739	   0.1087	  96.9400	  92.7600	
  12.5000	 -31.0000	   5.0000	   0.2717	  -0.6739	   0.1087	  94.8475	  84.1350	
  15.0000	 -31.0000	   5.0000	   0.3261	  -0.6739	   0.1087	  92.7550	  75.5100	
  17.5000	 -31.0000	   5.0000	   0.3804	  -0.6739	   0.1087	  90.6625	  66.8850	
  20.0000	 -31.0000	   5.0000	   0.4348	  -0.6739	   0.1087	  88.5700	  58.2600	
 -20.0000	 -31.0000	   7.5000	  -0.4348	  -0.6739	   0.1630	  16.8625	  20.6950	
 -17.5000	 -31.0000	   7.5000	  -0.3804	  -0.6739	   0.1630	  21.0787	  28.5138	
 -15.0000	 -31.0000	   7.5000	  -0.3261	  -0.6739	   0.1630	  25.2950	  36.3325	
 -12.5000	 -31.0000	   7.5000	  -0.2717	  -0.6739	   0.1630	  29.5113	  44.1513	
 -10.0000	 -31.0000	   7.5000	  -0.2174	  -0.6739	   0.1630	  34.5045	  52.5465	
  -7.5000	 -31.0000	   7.5000	  -0.1630	  -0.6739	   0.1630	  42.4763	  63.1519	
  -5.0000	 -31.0000	   7.5000	  -0.1087	  -0.6739	   0.1630	  51.2250	  74.3337	
  -2.5000	 -31.0000	   7.5000	  -0.0543	  -0.6739	   0.1630	  59.9737	  85.5156	
   0.0000	 -31.0000	   7.5000	   0.0000	  -0.6739	   0.1630	  68.1139	  94.1434	
   2.5000	 -31.0000	   7.5000	   0.0543	  -0.6739	   0.1630	  73.9212	  92.9806	
   5.0000	 -31.0000	   7.5000	   0.1087	  -0.6739	   0.1630	  79.1200	  89.2638	
   7.5000	 -31.0000	   7.5000	   0.1630	  -0.6739	   0.1630	  84.3188	  85.5469	
  10.0000	 -31.0000	   7.5000	   0.2174	  -0.6739	   0.1630	  88.4257	  81.3660	
  12.5000	 -31.0000	   7.5000	   0.2717	  -0.6739	   0.1630	  88.3475	  75.4062	
  15.0000	 -31.0000	   7.5000	   0.3261	  -0.6739	   0.1630	  87.1775	  68.9825	
  17.5000	 -31.0000	   7.5000	   0.3804	  -0.6739	   0.1630	  86.0075	  62.5588	
  20.0000	 -31.0000	   7.5000	   0.4348	  -0.6739	   0.1630	  84.8375	  56.1350	
 -20.0000	 -31.0000	  10.0000	  -0.4348	  -0.6739	   0.2174	  15.6750	  19.3600	
 -17.5000	 -31.0000	  10.0000	  -0.3804	  -0.6739	   0.2174	  19.4050	  25.7700	
 -15.0000	 -31.0000	  10.0000	  -0.3261	  -0.6739	   0.2174	  23.1350	  32.1800	
 -12.5000	 -31.0000	  10.0000	  -0.2717	  -0.6739	   0.2174	  26.8650	  38.5900	
 -10.0000	 -31.0000	  10.0000	  -0.2174	  -0.6739	   0.2174	  31.4067	  45.4075	
  -7.5000	 -31.0000	  10.0000	  -0.1630	  -0.6739	   0.2174	  37.9775	  53.2437	
  -5.0000	 -31.0000	  10.0000	  -0.1087	  -0.6739	   0.2174	  45.3600	  61.4875	
  -2.5000	 -31.0000	  10.0000	  -0.0543	  -0.6739	   0.2174	  52.7425	  69.7313	
   0.0000	 -31.0000	  10.0000	   0.0000	  -0.6739	   0.2174	  59.7050	  75.7500	
   2.5000	 -31.0000	  10.0000	   0.0543	  -0.6739	   0.2174	  65.6175	  76.2062	
   5.0000	 -31.0000	  10.0000	   0.1087	  -0.6739	   0.2174	  71.1100	  74.4375	
   7.5000	 -31.0000	  10.0000	   0.1630	  -0.6739	   0.2174	  76.6025	  72.6687	
  10.0000	 -31.0000	  10.0000	   0.2174	  -0.6739	   0.2174	  80.8194	  70.3547	
  12.5000	 -31.0000	  10.0000	   0.2717	  -0.6739	   0.2174	  81.8475	  66.6775	
  15.0000	 -31.0000	  10.0000	   0.3261	  -0.6739	   0.2174	  81.6000	  62.4550	
  17.5000	 -31.0000	  10.0000	   0.3804	  -0.6739	   0.2174	  81.3525	  58.2325	
  20.0000	 -31.0000	  10.0000	   0.4348	  -0.6739	   0.2174	  81.1050	  54.0100	
 -20.0000	 -31.0000	  12.5000	  -0.4348	  -0.6739	   0.2717	  14.4875	  18.0250	
 -17.5000	 -31.0000	  12.5000	  -0.3804	  -0.6739	   0.2717	  17.7313	  23.0263	
 -15.0000	 -31.0000	  12.5000	  -0.3261	  -0.6739	   0.2717	  20.9750	  28.0275	
 -12.5000	 -31.0000	  12.5000	  -0.2717	  -0.6739	   0.2717	  24.2187	  33.0287	
 -10.0000	 -31.0000	  12.5000	  -0.2174	  -0.6739	   0.2717	  27.9378	  38.0822	
  -7.5000	 -31.0000	  12.5000	  -0.1630	  -0.6739	   0.2717	  33.4787	  43.3356	
  -5.0000	 -31.0000	  12.5000	  -0.1087	  -0.6739	   0.2717	  39.4950	  48.6412	
  -2.5000	 -31.0000	  12.5000	  -0.0543	  -0.6739	   0.2717	  45.5112	  53.9469	
   0.0000	 -31.0000	  12.5000	   0.0000	  -0.6739	   0.2717	  51.4881	  58.3737	
   2.5000	 -31.0000	  12.5000	   0.0543	  -0.6739	   0.2717	  57.3137	  59.4319	
   5.0000	 -31.0000	  12.5000	   0.1087	  -0.6739	   0.2717	  63.1000	  59.6113	
   7.5000	 -31.0000	  12.5000	   0.1630	  -0.6739	   0.2717	  68.8862	  59.7906	
  10.0000	 -31.0000	  12.5000	   0.2174	  -0.6739	   0.2717	  73.7963	  59.5928	
  12.5000	 -31.0000	  12.5000	   0.2717	  -0.6739	   0.2717	  75.3475	  57.9488	
  15.0000	 -31.0000	  12.5000	   0.3261	  -0.6739	   0.2717	  76.0225	  55.9275	
  17.5000	 -31.0000	  12.5000	   0.3804	  -0.6739	   0.2717	  76.6975	  53.9062	
  20.0000	 -31.0000	  12.5000	   0.4348	  -0.6739	   0.2717	  77.3725	  51.8850	
 -20.0000	 -31.0000	  15.0000	  -0.4348	  -0.6739	   0.3261	  13.3000	  16.6900	
 -17.5000	 -31.0000	  15.0000	  -0.3804	  -0.6739	   0.3261	  16.0706	  20.4253	
 -15.0000	 -31.0000	  15.0000	  -0.3261	  -0.6739	   0.3261	  18.8661	  24.2486	
 -12.5000	 -31.0000	  15.0000	  -0.2717	  -0.6739	   0.3261	  21.6383	  27.9011	
 -10.0000	 -31.0000	  15.0000	  -0.2174	  -0.6739	   0.3261	  24.3300	  31.0600	
  -7.5000	 -31.0000	  15.0000	  -0.1630	  -0.6739	   0.3261	  29.2687	  34.5167	
  -5.0000	 -31.0000	  15.0000	  -0.1087	  -0.6739	   0.3261	  34.2592	  37.8683	
  -2.5000	 -31.0000	  15.0000	  -0.0543	  -0.6739	   0.3261	  38.9620	  40.2721	
   0.0000	 -31.0000	  15.0000	   0.0000	  -0.6739	   0.3261	  42.9300	  40.5300	
   2.5000	 -31.0000	  15.0000	   0.0543	  -0.6739	   0.3261	  49.7927	  44.9094	
   5.0000	 -31.0000	  15.0000	   0.1087	  -0.6739	   0.3261	  55.9803	  47.2272	
   7.5000	 -31.0000	  15.0000	   0.1630	  -0.6739	   0.3261	  61.7609	  48.4286	
  10.0000	 -31.0000	  15.0000	   0.2174	  -0.6739	   0.3261	  67.2500	  49.0400	
  12.5000	 -31.0000	  15.0000	   0.2717	  -0.6739	   0.3261	  69.0876	  49.9569	
  15.0000	 -31.0000	  15.0000	   0.3261	  -0.6739	   0.3261	  70.4258	  49.8222	
  17.5000	 -31.0000	  15.0000	   0.3804	  -0.6739	   0.3261	  71.7728	  49.4945	
  20.0000	 -31.0000	  15.0000	   0.4348	  -0.6739	   0.3261	  73.6400	  49.7600	
 -20.0000	 -31.0000	  17.5000	  -0.4348	  -0.6739	   0.3804	  12.0350	  15.3400	
 -17.5000	 -31.0000	  17.5000	  -0.3804	  -0.6739	   0.3804	  14.4600	  18.3719	
 -15.0000	 -31.0000	  17.5000	  -0.3261	  -0.6739	   0.3804	  16.8850	  21.4037	
 -12.5000	 -31.0000	  17.5000	  -0.2717	  -0.6739	   0.3804	  19.3100	  24.4356	
 -10.0000	 -31.0000	  17.5000	  -0.2174	  -0.6739	   0.3804	  22.0788	  27.3601	
  -7.5000	 -31.0000	  17.5000	  -0.1630	  -0.6739	   0.3804	  26.1656	  29.8731	
  -5.0000	 -31.0000	  17.5000	  -0.1087	  -0.6739	   0.3804	  30.5962	  32.2788	
  -2.5000	 -31.0000	  17.5000	  -0.0543	  -0.6739	   0.3804	  35.0269	  34.6844	
   0.0000	 -31.0000	  17.5000	   0.0000	  -0.6739	   0.3804	  39.6947	  37.0084	
   2.5000	 -31.0000	  17.5000	   0.0543	  -0.6739	   0.3804	  45.2719	  39.0194	
   5.0000	 -31.0000	  17.5000	   0.1087	  -0.6739	   0.3804	  51.0862	  40.9487	
   7.5000	 -31.0000	  17.5000	   0.1630	  -0.6739	   0.3804	  56.9006	  42.8781	
  10.0000	 -31.0000	  17.5000	   0.2174	  -0.6739	   0.3804	  61.8954	  44.4737	
  12.5000	 -31.0000	  17.5000	   0.2717	  -0.6739	   0.3804	  63.7481	  44.7900	
  15.0000	 -31.0000	  17.5000	   0.3261	  -0.6739	   0.3804	  64.7812	  44.7725	
  17.5000	 -31.0000	  17.5000	   0.3804	  -0.6739	   0.3804	  65.8144	  44.7550	
  20.0000	 -31.0000	  17.5000	   0.4348	  -0.6739	   0.3804	  66.8475	  44.7375	
 -20.0000	 -31.0000	  20.0000	  -0.4348	  -0.6739	   0.4348	  10.7700	  13.9900	
 -17.5000	 -31.0000	  20.0000	  -0.3804	  -0.6739	   0.4348	  12.8625	  16.4612	
 -15.0000	 -31.0000	  20.0000	  -0.3261	  -0.6739	   0.4348	  14.9550	  18.9325	
 -12.5000	 -31.0000	  20.0000	  -0.2717	  -0.6739	   0.4348	  17.0475	  21.4037	
 -10.0000	 -31.0000	  20.0000	  -0.2174	  -0.6739	   0.4348	  19.6108	  23.8689	
  -7.5000	 -31.0000	  20.0000	  -0.1630	  -0.6739	   0.4348	  23.3512	  26.3188	
  -5.0000	 -31.0000	  20.0000	  -0.1087	  -0.6739	   0.4348	  27.5625	  28.7625	
  -2.5000	 -31.0000	  20.0000	  -0.0543	  -0.6739	   0.4348	  31.7737	  31.2063	
   0.0000	 -31.0000	  20.0000	   0.0000	  -0.6739	   0.4348	  36.2822	  33.4917	
   2.5000	 -31.0000	  20.0000	   0.0543	  -0.6739	   0.4348	  41.5338	  35.3813	
   5.0000	 -31.0000	  20.0000	   0.1087	  -0.6739	   0.4348	  47.0825	  37.1125	
   7.5000	 -31.0000	  20.0000	   0.1630	  -0.6739	   0.4348	  52.6312	  38.8437	
  10.0000	 -31.0000	  20.0000	   0.2174	  -0.6739	   0.4348	  57.0511	  40.1425	
  12.5000	 -31.0000	  20.0000	   0.2717	  -0.6739	   0.4348	  58.6487	  40.3600	
  15.0000	 -31.0000	  20.0000	   0.3261	  -0.6739	   0.4348	  59.1175	  40.1450	
  17.5000	 -31.0000	  20.0000	   0.3804	  -0.6739	   0.4348	  59.5863	  39.9300	
  20.0000	 -31.0000	  20.0000	   0.4348	  -0.6739	   0.4348	  60.0550	  39.7150	
 -20.0000	 -31.0000	  22.5000	  -0.4348	  -0.6739	   0.4891	   9.5050	  12.6400	
 -17.5000	 -31.0000	  22.5000	  -0.3804	  -0.6739	   0.4891	  11.2650	  14.5506	
 -15.0000	 -31.0000	  22.5000	  -0.3261	  -0.6739	   0.4891	  13.0250	  16.4612	
 -12.5000	 -31.0000	  22.5000	  -0.2717	  -0.6739	   0.4891	  14.7850	  18.3719	
 -10.0000	 -31.0000	  22.5000	  -0.2174	  -0.6739	   0.4891	  16.9276	  20.3804	
  -7.5000	 -31.0000	  22.5000	  -0.1630	  -0.6739	   0.4891	  20.5369	  22.7644	
  -5.0000	 -31.0000	  22.5000	  -0.1087	  -0.6739	   0.4891	  24.5287	  25.2462	
  -2.5000	 -31.0000	  22.5000	  -0.0543	  -0.6739	   0.4891	  28.5206	  27.7281	
   0.0000	 -31.0000	  22.5000	   0.0000	  -0.6739	   0.4891	  32.7339	  30.0474	
   2.5000	 -31.0000	  22.5000	   0.0543	  -0.6739	   0.4891	  37.7956	  31.7431	
   5.0000	 -31.0000	  22.5000	   0.1087	  -0.6739	   0.4891	  43.0787	  33.2763	
   7.5000	 -31.0000	  22.5000	   0.1630	  -0.6739	   0.4891	  48.3619	  34.8094	
  10.0000	 -31.0000	  22.5000	   0.2174	  -0.6739	   0.4891	  52.7229	  36.0090	
  12.5000	 -31.0000	  22.5000	   0.2717	  -0.6739	   0.4891	  53.5494	  35.9300	
  15.0000	 -31.0000	  22.5000	   0.3261	  -0.6739	   0.4891	  53.4537	  35.5175	
  17.5000	 -31.0000	  22.5000	   0.3804	  -0.6739	   0.4891	  53.3581	  35.1050	
  20.0000	 -31.0000	  22.5000	   0.4348	  -0.6739	   0.4891	  53.2625	  34.6925	
 -20.0000	 -31.0000	  25.0000	  -0.4348	  -0.6739	   0.5435	   8.2400	  11.2900	
 -17.5000	 -31.0000	  25.0000	  -0.3804	  -0.6739	   0.5435	   9.7974	  12.7568	
 -15.0000	 -31.0000	  25.0000	  -0.3261	  -0.6739	   0.5435	  11.3028	  14.2344	
 -12.5000	 -31.0000	  25.0000	  -0.2717	  -0.6739	   0.5435	  12.7132	  15.6004	
 -10.0000	 -31.0000	  25.0000	  -0.2174	  -0.6739	   0.5435	  13.9500	  16.6900	
  -7.5000	 -31.0000	  25.0000	  -0.1630	  -0.6739	   0.5435	  17.9261	  19.5084	
  -5.0000	 -31.0000	  25.0000	  -0.1087	  -0.6739	   0.5435	  21.7361	  22.0731	
  -2.5000	 -31.0000	  25.0000	  -0.0543	  -0.6739	   0.5435	  25.4359	  24.4809	
   0.0000	 -31.0000	  25.0000	   0.0000	  -0.6739	   0.5435	  29.0400	  26.7700	
   2.5000	 -31.0000	  25.0000	   0.0543	  -0.6739	   0.5435	  34.1765	  28.3256	
   5.0000	 -31.0000	  25.0000	   0.1087	  -0.6739	   0.5435	  39.1881	  29.7564	
   7.5000	 -31.0000	  25.0000	   0.1630	  -0.6739	   0.5435	  44.1479	  31.0425	
  10.0000	 -31.0000	  25.0000	   0.2174	  -0.6739	   0.5435	  49.1100	  32.1100	
  12.5000	 -31.0000	  25.0000	   0.2717	  -0.6739	   0.5435	  48.6741	  31.8514	
  15.0000	 -31.0000	  25.0000	   0.3261	  -0.6739	   0.5435	  48.3406	  31.4239	
  17.5000	 -31.0000	  25.0000	   0.3804	  -0.6739	   0.5435	  47.7553	  30.7523	
  20.0000	 -31.0000	  25.0000	   0.4348	  -0.6739	   0.5435	  46.4700	  29.6700	
 -20.0000	 -31.0000	  27.5000	  -0.4348	  -0.6739	   0.5978	   7.5550	  10.2025	
 -17.5000	 -31.0000	  27.5000	  -0.3804	  -0.6739	   0.5978	   8.8275	  11.4106	
 -15.0000	 -31.0000	  27.5000	  -0.3261	  -0.6739	   0.5978	  10.1000	  12.6188	
 -12.5000	 -31.0000	  27.5000	  -0.2717	  -0.6739	   0.5978	  11.3725	  13.8269	
 -10.0000	 -31.0000	  27.5000	  -0.2174	  -0.6739	   0.5978	  13.0184	  15.2327	
  -7.5000	 -31.0000	  27.5000	  -0.1630	  -0.6739	   0.5978	  16.0956	  17.3963	
  -5.0000	 -31.0000	  27.5000	  -0.1087	  -0.6739	   0.5978	  19.5462	  19.7575	
  -2.5000	 -31.0000	  27.5000	  -0.0543	  -0.6739	   0.5978	  22.9969	  22.1187	
   0.0000	 -31.0000	  27.5000	   0.0000	  -0.6739	   0.5978	  26.6387	  24.2936	
   2.5000	 -31.0000	  27.5000	   0.0543	  -0.6739	   0.5978	  31.0137	  25.7537	
   5.0000	 -31.0000	  27.5000	   0.1087	  -0.6739	   0.5978	  35.5800	  27.0275	
   7.5000	 -31.0000	  27.5000	   0.1630	  -0.6739	   0.5978	  40.1462	  28.3013	
  10.0000	 -31.0000	  27.5000	   0.2174	  -0.6739	   0.5978	  43.9204	  29.2786	
  12.5000	 -31.0000	  27.5000	   0.2717	  -0.6739	   0.5978	  44.6581	  29.1200	
  15.0000	 -31.0000	  27.5000	   0.3261	  -0.6739	   0.5978	  44.6037	  28.6650	
  17.5000	 -31.0000	  27.5000	   0.3804	  -0.6739	   0.5978	  44.5494	  28.2100	
  20.0000	 -31.0000	  27.5000	   0.4348	  -0.6739	   0.5978	  44.4950	  27.7550	
 -20.0000	 -31.0000	  30.0000	  -0.4348	  -0.6739	   0.6522	   6.8700	   9.1150	
 -17.5000	 -31.0000	  30.0000	  -0.3804	  -0.6739	   0.6522	   7.9875	  10.1812	
 -15.0000	 -31.0000	  30.0000	  -0.3261	  -0.6739	   0.6522	   9.1050	  11.2475	
 -12.5000	 -31.0000	  30.0000	  -0.2717	  -0.6739	   0.6522	  10.2225	  12.3137	
 -10.0000	 -31.0000	  30.0000	  -0.2174	  -0.6739	   0.6522	  11.7869	  13.6325	
  -7.5000	 -31.0000	  30.0000	  -0.1630	  -0.6739	   0.6522	  14.4687	  15.5825	
  -5.0000	 -31.0000	  30.0000	  -0.1087	  -0.6739	   0.6522	  17.5975	  17.7850	
  -2.5000	 -31.0000	  30.0000	  -0.0543	  -0.6739	   0.6522	  20.7263	  19.9875	
   0.0000	 -31.0000	  30.0000	   0.0000	  -0.6739	   0.6522	  24.0742	  21.9700	
   2.5000	 -31.0000	  30.0000	   0.0543	  -0.6739	   0.6522	  27.9700	  23.4025	
   5.0000	 -31.0000	  30.0000	   0.1087	  -0.6739	   0.6522	  32.0850	  24.6150	
   7.5000	 -31.0000	  30.0000	   0.1630	  -0.6739	   0.6522	  36.2000	  25.8275	
  10.0000	 -31.0000	  30.0000	   0.2174	  -0.6739	   0.6522	  39.5231	  26.7039	
  12.5000	 -31.0000	  30.0000	   0.2717	  -0.6739	   0.6522	  40.8663	  26.7400	
  15.0000	 -31.0000	  30.0000	   0.3261	  -0.6739	   0.6522	  41.4175	  26.4400	
  17.5000	 -31.0000	  30.0000	   0.3804	  -0.6739	   0.6522	  41.9688	  26.1400	
  20.0000	 -31.0000	  30.0000	   0.4348	  -0.6739	   0.6522	  42.5200	  25.8400	
 -20.0000	 -31.0000	  32.5000	  -0.4348	  -0.6739	   0.7065	   6.1850	   8.0275	
 -17.5000	 -31.0000	  32.5000	  -0.3804	  -0.6739	   0.7065	   7.1475	   8.9519	
 -15.0000	 -31.0000	  32.5000	  -0.3261	  -0.6739	   0.7065	   8.1100	   9.8763	
 -12.5000	 -31.0000	  32.5000	  -0.2717	  -0.6739	   0.7065	   9.0725	  10.8006	
 -10.0000	 -31.0000	  32.5000	  -0.2174	  -0.6739	   0.7065	  10.3512	  11.9169	
  -7.5000	 -31.0000	  32.5000	  -0.1630	  -0.6739	   0.7065	  12.8419	  13.7687	
  -5.0000	 -31.0000	  32.5000	  -0.1087	  -0.6739	   0.7065	  15.6487	  15.8125	
  -2.5000	 -31.0000	  32.5000	  -0.0543	  -0.6739	   0.7065	  18.4556	  17.8563	
   0.0000	 -31.0000	  32.5000	   0.0000	  -0.6739	   0.7065	  21.4094	  19.7470	
   2.5000	 -31.0000	  32.5000	   0.0543	  -0.6739	   0.7065	  24.9263	  21.0513	
   5.0000	 -31.0000	  32.5000	   0.1087	  -0.6739	   0.7065	  28.5900	  22.2025	
   7.5000	 -31.0000	  32.5000	   0.1630	  -0.6739	   0.7065	  32.2537	  23.3537	
  10.0000	 -31.0000	  32.5000	   0.2174	  -0.6739	   0.7065	  35.4877	  24.2828	
  12.5000	 -31.0000	  32.5000	   0.2717	  -0.6739	   0.7065	  37.0744	  24.3600	
  15.0000	 -31.0000	  32.5000	   0.3261	  -0.6739	   0.7065	  38.2312	  24.2150	
  17.5000	 -31.0000	  32.5000	   0.3804	  -0.6739	   0.7065	  39.3881	  24.0700	
  20.0000	 -31.0000	  32.5000	   0.4348	  -0.6739	   0.7065	  40.5450	  23.9250	
 -20.0000	 -31.0000	  35.0000	  -0.4348	  -0.6739	   0.7609	   5.5000	   6.9400	
 -17.5000	 -31.0000	  35.0000	  -0.3804	  -0.6739	   0.7609	   6.4078	   7.8700	
 -15.0000	 -31.0000	  35.0000	  -0.3261	  -0.6739	   0.7609	   7.2600	   8.7042	
 -12.5000	 -31.0000	  35.0000	  -0.2717	  -0.6739	   0.7609	   8.0459	   9.4473	
 -10.0000	 -31.0000	  35.0000	  -0.2174	  -0.6739	   0.7609	   8.7300	  10.0700	
  -7.5000	 -31.0000	  35.0000	  -0.1630	  -0.6739	   0.7609	  11.3455	  12.1059	
  -5.0000	 -31.0000	  35.0000	  -0.1087	  -0.6739	   0.7609	  13.8633	  14.0161	
  -2.5000	 -31.0000	  35.0000	  -0.0543	  -0.6739	   0.7609	  16.3065	  15.8459	
   0.0000	 -31.0000	  35.0000	   0.0000	  -0.6739	   0.7609	  18.6700	  17.6100	
   2.5000	 -31.0000	  35.0000	   0.0543	  -0.6739	   0.7609	  22.0200	  18.8223	
   5.0000	 -31.0000	  35.0000	   0.1087	  -0.6739	   0.7609	  25.2997	  19.9697	
   7.5000	 -31.0000	  35.0000	   0.1630	  -0.6739	   0.7609	  28.4859	  21.0350	
  10.0000	 -31.0000	  35.0000	   0.2174	  -0.6739	   0.7609	  31.5200	  21.9700	
  12.5000	 -31.0000	  35.0000	   0.2717	  -0.6739	   0.7609	  33.3986	  22.1267	
  15.0000	 -31.0000	  35.0000	   0.3261	  -0.6739	   0.7609	  35.0883	  22.1481	
  17.5000	 -31.0000	  35.0000	   0.3804	  -0.6739	   0.7609	  36.7582	  22.0972	
  20.0000	 -31.0000	  35.0000	   0.4348	  -0.6739	   0.7609	  38.5700	  22.0100	
 -20.0000	 -31.0000	  37.5000	  -0.4348	  -0.6739	   0.8152	   5.3325	   6.6775	
 -17.5000	 -31.0000	  37.5000	  -0.3804	  -0.6739	   0.8152	   6.0525	   7.3537	
 -15.0000	 -31.0000	  37.5000	  -0.3261	  -0.6739	   0.8152	   6.7725	   8.0300	
 -12.5000	 -31.0000	  37.5000	  -0.2717	  -0.6739	   0.8152	   7.4925	   8.7063	
 -10.0000	 -31.0000	  37.5000	  -0.2174	  -0.6739	   0.8152	   8.4554	   9.5475	
  -7.5000	 -31.0000	  37.5000	  -0.1630	  -0.6739	   0.8152	  10.3494	  11.0213	
  -5.0000	 -31.0000	  37.5000	  -0.1087	  -0.6739	   0.8152	  12.4863	  12.6600	
  -2.5000	 -31.0000	  37.5000	  -0.0543	  -0.6739	   0.8152	  14.6231	  14.2988	
   0.0000	 -31.0000	  37.5000	   0.0000	  -0.6739	   0.8152	  16.8875	  15.8493	
   2.5000	 -31.0000	  37.5000	   0.0543	  -0.6739	   0.8152	  19.6406	  17.0619	
   5.0000	 -31.0000	  37.5000	   0.1087	  -0.6739	   0.8152	  22.5213	  18.1863	
   7.5000	 -31.0000	  37.5000	   0.1630	  -0.6739	   0.8152	  25.4019	  19.3106	
  10.0000	 -31.0000	  37.5000	   0.2174	  -0.6739	   0.8152	  28.1119	  20.2458	
  12.5000	 -31.0000	  37.5000	   0.2717	  -0.6739	   0.8152	  30.1681	  20.4556	
  15.0000	 -31.0000	  37.5000	   0.3261	  -0.6739	   0.8152	  32.0538	  20.4763	
  17.5000	 -31.0000	  37.5000	   0.3804	  -0.6739	   0.8152	  33.9394	  20.4969	
  20.0000	 -31.0000	  37.5000	   0.4348	  -0.6739	   0.8152	  35.8250	  20.5175	
 -20.0000	 -31.0000	  40.0000	  -0.4348	  -0.6739	   0.8696	   5.1650	   6.4150	
 -17.5000	 -31.0000	  40.0000	  -0.3804	  -0.6739	   0.8696	   5.7975	   6.9850	
 -15.0000	 -31.0000	  40.0000	  -0.3261	  -0.6739	   0.8696	   6.4300	   7.5550	
 -12.5000	 -31.0000	  40.0000	  -0.2717	  -0.6739	   0.8696	   7.0625	   8.1250	
 -10.0000	 -31.0000	  40.0000	  -0.2174	  -0.6739	   0.8696	   7.9519	   8.8778	
  -7.5000	 -31.0000	  40.0000	  -0.1630	  -0.6739	   0.8696	   9.4837	  10.0875	
  -5.0000	 -31.0000	  40.0000	  -0.1087	  -0.6739	   0.8696	  11.2725	  11.4800	
  -2.5000	 -31.0000	  40.0000	  -0.0543	  -0.6739	   0.8696	  13.0612	  12.8725	
   0.0000	 -31.0000	  40.0000	   0.0000	  -0.6739	   0.8696	  15.0189	  14.2131	
   2.5000	 -31.0000	  40.0000	   0.0543	  -0.6739	   0.8696	  17.3988	  15.4238	
   5.0000	 -31.0000	  40.0000	   0.1087	  -0.6739	   0.8696	  19.9475	  16.5825	
   7.5000	 -31.0000	  40.0000	   0.1630	  -0.6739	   0.8696	  22.4962	  17.7413	
  10.0000	 -31.0000	  40.0000	   0.2174	  -0.6739	   0.8696	  24.9250	  18.6494	
  12.5000	 -31.0000	  40.0000	   0.2717	  -0.6739	   0.8696	  27.0538	  18.9312	
  15.0000	 -31.0000	  40.0000	   0.3261	  -0.6739	   0.8696	  29.0625	  18.9625	
  17.5000	 -31.0000	  40.0000	   0.3804	  -0.6739	   0.8696	  31.0713	  18.9938	
  20.0000	 -31.0000	  40.0000	   0.4348	  -0.6739	   0.8696	  33.0800	  19.0250	
 -20.0000	 -31.0000	  42.5000	  -0.4348	  -0.6739	   0.9239	   4.9975	   6.1525	
 -17.5000	 -31.0000	  42.5000	  -0.3804	  -0.6739	   0.9239	   5.5425	   6.6163	
 -15.0000	 -31.0000	  42.5000	  -0.3261	  -0.6739	   0.9239	   6.0875	   7.0800	
 -12.5000	 -31.0000	  42.5000	  -0.2717	  -0.6739	   0.9239	   6.6325	   7.5437	
 -10.0000	 -31.0000	  42.5000	  -0.2174	  -0.6739	   0.9239	   7.3310	   8.1245	
  -7.5000	 -31.0000	  42.5000	  -0.1630	  -0.6739	   0.9239	   8.6181	   9.1538	
  -5.0000	 -31.0000	  42.5000	  -0.1087	  -0.6739	   0.9239	  10.0587	  10.3000	
  -2.5000	 -31.0000	  42.5000	  -0.0543	  -0.6739	   0.9239	  11.4994	  11.4462	
   0.0000	 -31.0000	  42.5000	   0.0000	  -0.6739	   0.9239	  13.0731	  12.6005	
   2.5000	 -31.0000	  42.5000	   0.0543	  -0.6739	   0.9239	  15.1569	  13.7856	
   5.0000	 -31.0000	  42.5000	   0.1087	  -0.6739	   0.9239	  17.3737	  14.9787	
   7.5000	 -31.0000	  42.5000	   0.1630	  -0.6739	   0.9239	  19.5906	  16.1719	
  10.0000	 -31.0000	  42.5000	   0.2174	  -0.6739	   0.9239	  21.7929	  17.1676	
  12.5000	 -31.0000	  42.5000	   0.2717	  -0.6739	   0.9239	  23.9394	  17.4069	
  15.0000	 -31.0000	  42.5000	   0.3261	  -0.6739	   0.9239	  26.0712	  17.4488	
  17.5000	 -31.0000	  42.5000	   0.3804	  -0.6739	   0.9239	  28.2031	  17.4906	
  20.0000	 -31.0000	  42.5000	   0.4348	  -0.6739	   0.9239	  30.3350	  17.5325	
 -20.0000	 -31.0000	  45.0000	  -0.4348	  -0.6739	   0.9783	   4.8300	   5.8900	
 -17.5000	 -31.0000	  45.0000	  -0.3804	  -0.6739	   0.9783	   5.2855	   6.2680	
 -15.0000	 -31.0000	  45.0000	  -0.3261	  -0.6739	   0.9783	   5.7486	   6.6508	
 -12.5000	 -31.0000	  45.0000	  -0.2717	  -0.6739	   0.9783	   6.2101	   7.0128	
 -10.0000	 -31.0000	  45.0000	  -0.2174	  -0.6739	   0.9783	   6.6600	   7.3200	
  -7.5000	 -31.0000	  45.0000	  -0.1630	  -0.6739	   0.9783	   7.7912	   8.3053	
  -5.0000	 -31.0000	  45.0000	  -0.1087	  -0.6739	   0.9783	   8.9292	   9.2567	
  -2.5000	 -31.0000	  45.0000	  -0.0543	  -0.6739	   0.9783	  10.0287	  10.1456	
   0.0000	 -31.0000	  45.0000	   0.0000	  -0.6739	   0.9783	  11.0300	  10.9200	
   2.5000	 -31.0000	  45.0000	   0.0543	  -0.6739	   0.9783	  13.0307	  12.2521	
   5.0000	 -31.0000	  45.0000	   0.1087	  -0.6739	   0.9783	  14.9478	  13.4572	
   7.5000	 -31.0000	  45.0000	   0.1630	  -0.6739	   0.9783	  16.7973	  14.6248	
  10.0000	 -31.0000	  45.0000	   0.2174	  -0.6739	   0.9783	  18.5700	  15.8300	
  12.5000	 -31.0000	  45.0000	   0.2717	  -0.6739	   0.9783	  20.8325	  15.8825	
  15.0000	 -31.0000	  45.0000	   0.3261	  -0.6739	   0.9783	  22.9561	  15.9594	
  17.5000	 -31.0000	  45.0000	   0.3804	  -0.6739	   0.9783	  25.1364	  16.0252	
  20.0000	 -31.0000	  45.0000	   0.4348	  -0.6739	   0.9783	  27.5900	  16.0400	
 -20.0000	 -31.0000	  47.5000	  -0.4348	  -0.6739	   1.0326	   4.6225	   5.6600	
 -17.5000	 -31.0000	  47.5000	  -0.3804	  -0.6739	   1.0326	   5.0206	   5.9981	
 -15.0000	 -31.0000	  47.5000	  -0.3261	  -0.6739	   1.0326	   5.4187	   6.3362	
 -12.5000	 -31.0000	  47.5000	  -0.2717	  -0.6739	   1.0326	   5.8169	   6.6744	
 -10.0000	 -31.0000	  47.5000	  -0.2174	  -0.6739	   1.0326	   6.3006	   7.0868	
  -7.5000	 -31.0000	  47.5000	  -0.1630	  -0.6739	   1.0326	   7.1125	   7.7837	
  -5.0000	 -31.0000	  47.5000	  -0.1087	  -0.6739	   1.0326	   8.0100	   8.5550	
  -2.5000	 -31.0000	  47.5000	  -0.0543	  -0.6739	   1.0326	   8.9075	   9.3262	
   0.0000	 -31.0000	  47.5000	   0.0000	  -0.6739	   1.0326	   9.9157	  10.1405	
   2.5000	 -31.0000	  47.5000	   0.0543	  -0.6739	   1.0326	  11.3481	  11.1194	
   5.0000	 -31.0000	  47.5000	   0.1087	  -0.6739	   1.0326	  12.8913	  12.1413	
   7.5000	 -31.0000	  47.5000	   0.1630	  -0.6739	   1.0326	  14.4344	  13.1631	
  10.0000	 -31.0000	  47.5000	   0.2174	  -0.6739	   1.0326	  16.0176	  14.0395	
  12.5000	 -31.0000	  47.5000	   0.2717	  -0.6739	   1.0326	  17.7544	  14.3581	
  15.0000	 -31.0000	  47.5000	   0.3261	  -0.6739	   1.0326	  19.5312	  14.5312	
  17.5000	 -31.0000	  47.5000	   0.3804	  -0.6739	   1.0326	  21.3081	  14.7044	
  20.0000	 -31.0000	  47.5000	   0.4348	  -0.6739	   1.0326	  23.0850	  14.8775	
 -20.0000	 -31.0000	  50.0000	  -0.4348	  -0.6739	   1.0870	   4.4150	   5.4300	
 -17.5000	 -31.0000	  50.0000	  -0.3804	  -0.6739	   1.0870	   4.7538	   5.7487	
 -15.0000	 -31.0000	  50.0000	  -0.3261	  -0.6739	   1.0870	   5.0925	   6.0675	
 -12.5000	 -31.0000	  50.0000	  -0.2717	  -0.6739	   1.0870	   5.4312	   6.3862	
 -10.0000	 -31.0000	  50.0000	  -0.2174	  -0.6739	   1.0870	   5.8508	   6.7769	
  -7.5000	 -31.0000	  50.0000	  -0.1630	  -0.6739	   1.0870	   6.4725	   7.3475	
  -5.0000	 -31.0000	  50.0000	  -0.1087	  -0.6739	   1.0870	   7.1750	   7.9900	
  -2.5000	 -31.0000	  50.0000	  -0.0543	  -0.6739	   1.0870	   7.8775	   8.6325	
   0.0000	 -31.0000	  50.0000	   0.0000	  -0.6739	   1.0870	   8.6908	   9.3136	
   2.5000	 -31.0000	  50.0000	   0.0543	  -0.6739	   1.0870	   9.7812	  10.0912	
   5.0000	 -31.0000	  50.0000	   0.1087	  -0.6739	   1.0870	  10.9825	  10.9075	
   7.5000	 -31.0000	  50.0000	   0.1630	  -0.6739	   1.0870	  12.1837	  11.7238	
  10.0000	 -31.0000	  50.0000	   0.2174	  -0.6739	   1.0870	  13.4067	  12.4239	
  12.5000	 -31.0000	  50.0000	   0.2717	  -0.6739	   1.0870	  14.6837	  12.8338	
  15.0000	 -31.0000	  50.0000	   0.3261	  -0.6739	   1.0870	  15.9825	  13.1275	
  17.5000	 -31.0000	  50.0000	   0.3804	  -0.6739	   1.0870	  17.2813	  13.4213	
  20.0000	 -31.0000	  50.0000	   0.4348	  -0.6739	   1.0870	  18.5800	  13.7150	
 -20.0000	 -31.0000	  52.5000	  -0.4348	  -0.6739	   1.1413	   4.2075	   5.2000	
 -17.5000	 -31.0000	  52.5000	  -0.3804	  -0.6739	   1.1413	   4.4869	   5.4994	
 -15.0000	 -31.0000	  52.5000	  -0.3261	  -0.6739	   1.1413	   4.7662	   5.7987	
 -12.5000	 -31.0000	  52.5000	  -0.2717	  -0.6739	   1.1413	   5.0456	   6.0981	
 -10.0000	 -31.0000	  52.5000	  -0.2174	  -0.6739	   1.1413	   5.3641	   6.4343	
  -7.5000	 -31.0000	  52.5000	  -0.1630	  -0.6739	   1.1413	   5.8325	   6.9112	
  -5.0000	 -31.0000	  52.5000	  -0.1087	  -0.6739	   1.1413	   6.3400	   7.4250	
  -2.5000	 -31.0000	  52.5000	  -0.0543	  -0.6739	   1.1413	   6.8475	   7.9387	
   0.0000	 -31.0000	  52.5000	   0.0000	  -0.6739	   1.1413	   7.4153	   8.4691	
   2.5000	 -31.0000	  52.5000	   0.0543	  -0.6739	   1.1413	   8.2144	   9.0631	
   5.0000	 -31.0000	  52.5000	   0.1087	  -0.6739	   1.1413	   9.0737	   9.6738	
   7.5000	 -31.0000	  52.5000	   0.1630	  -0.6739	   1.1413	   9.9331	  10.2844	
  10.0000	 -31.0000	  52.5000	   0.2174	  -0.6739	   1.1413	  10.7859	  10.8614	
  12.5000	 -31.0000	  52.5000	   0.2717	  -0.6739	   1.1413	  11.6131	  11.3094	
  15.0000	 -31.0000	  52.5000	   0.3261	  -0.6739	   1.1413	  12.4337	  11.7237	
  17.5000	 -31.0000	  52.5000	   0.3804	  -0.6739	   1.1413	  13.2544	  12.1381	
  20.0000	 -31.0000	  52.5000	   0.4348	  -0.6739	   1.1413	  14.0750	  12.5525	
 -20.0000	 -31.0000	  55.0000	  -0.4348	  -0.6739	   1.1957	   4.0000	   4.9700	
 -17.5000	 -31.0000	  55.0000	  -0.3804	  -0.6739	   1.1957	   4.2003	   5.2425	
 -15.0000	 -31.0000	  55.0000	  -0.3261	  -0.6739	   1.1957	   4.4172	   5.5167	
 -12.5000	 -31.0000	  55.0000	  -0.2717	  -0.6739	   1.1957	   4.6446	   5.7969	
 -10.0000	 -31.0000	  55.0000	  -0.2174	  -0.6739	   1.1957	   4.8800	   6.0900	
  -7.5000	 -31.0000	  55.0000	  -0.1630	  -0.6739	   1.1957	   5.1968	   6.4645	
  -5.0000	 -31.0000	  55.0000	  -0.1087	  -0.6739	   1.1957	   5.5333	   6.8533	
  -2.5000	 -31.0000	  55.0000	  -0.0543	  -0.6739	   1.1957	   5.8569	   7.2452	
   0.0000	 -31.0000	  55.0000	   0.0000	  -0.6739	   1.1957	   6.1300	   7.6300	
   2.5000	 -31.0000	  55.0000	   0.0543	  -0.6739	   1.1957	   6.7359	   8.0538	
   5.0000	 -31.0000	  55.0000	   0.1087	  -0.6739	   1.1957	   7.3203	   8.4814	
   7.5000	 -31.0000	  55.0000	   0.1630	  -0.6739	   1.1957	   7.8337	   8.8901	
  10.0000	 -31.0000	  55.0000	   0.2174	  -0.6739	   1.1957	   8.2000	   9.2500	
  12.5000	 -31.0000	  55.0000	   0.2717	  -0.6739	   1.1957	   8.7869	   9.7892	
  15.0000	 -31.0000	  55.0000	   0.3261	  -0.6739	   1.1957	   9.2819	  10.2553	
  17.5000	 -31.0000	  55.0000	   0.3804	  -0.6739	   1.1957	   9.5955	  10.7510	
  20.0000	 -31.0000	  55.0000	   0.4348	  -0.6739	   1.1957	   9.5700	  11.3900	
 -20.0000	 -31.0000	  57.5000	  -0.4348	  -0.6739	   1.2500	   3.6650	   4.7125	
 -17.5000	 -31.0000	  57.5000	  -0.3804	  -0.6739	   1.2500	   3.8381	   4.9569	
 -15.0000	 -31.0000	  57.5000	  -0.3261	  -0.6739	   1.2500	   4.0113	   5.2012	
 -12.5000	 -31.0000	  57.5000	  -0.2717	  -0.6739	   1.2500	   4.1844	   5.4456	
 -10.0000	 -31.0000	  57.5000	  -0.2174	  -0.6739	   1.2500	   4.3655	   5.6974	
  -7.5000	 -31.0000	  57.5000	  -0.1630	  -0.6739	   1.2500	   4.5775	   5.9775	
  -5.0000	 -31.0000	  57.5000	  -0.1087	  -0.6739	   1.2500	   4.7975	   6.2650	