Variables = "x [mm]"	"y [mm]"	"z [mm]"	"x/B"	"y/B"	"z/B"	"C*"	"C*std"	
Zone T = "West_y=29mm_Tec" I=17 J=25 F=POINT
 -20.0000	  29.0000	   5.0000	  -0.4348	   0.6304	   0.1087	  73.3300	  45.6400	
 -17.5000	  29.0000	   5.0000	  -0.3804	   0.6304	   0.1087	  70.4100	  49.0725	
 -15.0000	  29.0000	   5.0000	  -0.3261	   0.6304	   0.1087	  67.4900	  52.5050	
 -12.5000	  29.0000	   5.0000	  -0.2717	   0.6304	   0.1087	  64.5700	  55.9375	
 -10.0000	  29.0000	   5.0000	  -0.2174	   0.6304	   0.1087	  61.6500	  59.3700	
  -7.5000	  29.0000	   5.0000	  -0.1630	   0.6304	   0.1087	  56.1475	  58.8500	
  -5.0000	  29.0000	   5.0000	  -0.1087	   0.6304	   0.1087	  50.6450	  58.3300	
  -2.5000	  29.0000	   5.0000	  -0.0543	   0.6304	   0.1087	  45.1425	  57.8100	
   0.0000	  29.0000	   5.0000	   0.0000	   0.6304	   0.1087	  39.6400	  57.2900	
   2.5000	  29.0000	   5.0000	   0.0543	   0.6304	   0.1087	  42.5100	  56.6850	
   5.0000	  29.0000	   5.0000	   0.1087	   0.6304	   0.1087	  45.3800	  56.0800	
   7.5000	  29.0000	   5.0000	   0.1630	   0.6304	   0.1087	  48.2500	  55.4750	
  10.0000	  29.0000	   5.0000	   0.2174	   0.6304	   0.1087	  51.1200	  54.8700	
  12.5000	  29.0000	   5.0000	   0.2717	   0.6304	   0.1087	  45.0025	  48.6700	
  15.0000	  29.0000	   5.0000	   0.3261	   0.6304	   0.1087	  38.8850	  42.4700	
  17.5000	  29.0000	   5.0000	   0.3804	   0.6304	   0.1087	  32.7675	  36.2700	
  20.0000	  29.0000	   5.0000	   0.4348	   0.6304	   0.1087	  26.6500	  30.0700	
 -20.0000	  29.0000	   7.5000	  -0.4348	   0.6304	   0.1630	  69.5075	  43.3200	
 -17.5000	  29.0000	   7.5000	  -0.3804	   0.6304	   0.1630	  67.0756	  46.4044	
 -15.0000	  29.0000	   7.5000	  -0.3261	   0.6304	   0.1630	  64.6437	  49.4888	
 -12.5000	  29.0000	   7.5000	  -0.2717	   0.6304	   0.1630	  62.2119	  52.5731	
 -10.0000	  29.0000	   7.5000	  -0.2174	   0.6304	   0.1630	  59.2530	  54.9628	
  -7.5000	  29.0000	   7.5000	  -0.1630	   0.6304	   0.1630	  54.2737	  54.6894	
  -5.0000	  29.0000	   7.5000	  -0.1087	   0.6304	   0.1630	  48.7675	  53.7212	
  -2.5000	  29.0000	   7.5000	  -0.0543	   0.6304	   0.1630	  43.2612	  52.7531	
   0.0000	  29.0000	   7.5000	   0.0000	   0.6304	   0.1630	  38.9848	  51.8127	
   2.5000	  29.0000	   7.5000	   0.0543	   0.6304	   0.1630	  39.4225	  50.9788	
   5.0000	  29.0000	   7.5000	   0.1087	   0.6304	   0.1630	  41.0900	  50.1725	
   7.5000	  29.0000	   7.5000	   0.1630	   0.6304	   0.1630	  42.7575	  49.3663	
  10.0000	  29.0000	   7.5000	   0.2174	   0.6304	   0.1630	  43.2650	  47.7939	
  12.5000	  29.0000	   7.5000	   0.2717	   0.6304	   0.1630	  39.3256	  43.2850	
  15.0000	  29.0000	   7.5000	   0.3261	   0.6304	   0.1630	  34.2263	  38.0100	
  17.5000	  29.0000	   7.5000	   0.3804	   0.6304	   0.1630	  29.1269	  32.7350	
  20.0000	  29.0000	   7.5000	   0.4348	   0.6304	   0.1630	  24.0275	  27.4600	
 -20.0000	  29.0000	  10.0000	  -0.4348	   0.6304	   0.2174	  65.6850	  41.0000	
 -17.5000	  29.0000	  10.0000	  -0.3804	   0.6304	   0.2174	  63.7413	  43.7362	
 -15.0000	  29.0000	  10.0000	  -0.3261	   0.6304	   0.2174	  61.7975	  46.4725	
 -12.5000	  29.0000	  10.0000	  -0.2717	   0.6304	   0.2174	  59.8537	  49.2088	
 -10.0000	  29.0000	  10.0000	  -0.2174	   0.6304	   0.2174	  57.1175	  51.0222	
  -7.5000	  29.0000	  10.0000	  -0.1630	   0.6304	   0.2174	  52.4000	  50.5287	
  -5.0000	  29.0000	  10.0000	  -0.1087	   0.6304	   0.2174	  46.8900	  49.1125	
  -2.5000	  29.0000	  10.0000	  -0.0543	   0.6304	   0.2174	  41.3800	  47.6962	
   0.0000	  29.0000	  10.0000	   0.0000	   0.6304	   0.2174	  37.1978	  46.3708	
   2.5000	  29.0000	  10.0000	   0.0543	   0.6304	   0.2174	  36.3350	  45.2725	
   5.0000	  29.0000	  10.0000	   0.1087	   0.6304	   0.2174	  36.8000	  44.2650	
   7.5000	  29.0000	  10.0000	   0.1630	   0.6304	   0.2174	  37.2650	  43.2575	
  10.0000	  29.0000	  10.0000	   0.2174	   0.6304	   0.2174	  36.7197	  41.5072	
  12.5000	  29.0000	  10.0000	   0.2717	   0.6304	   0.2174	  33.6487	  37.9000	
  15.0000	  29.0000	  10.0000	   0.3261	   0.6304	   0.2174	  29.5675	  33.5500	
  17.5000	  29.0000	  10.0000	   0.3804	   0.6304	   0.2174	  25.4863	  29.2000	
  20.0000	  29.0000	  10.0000	   0.4348	   0.6304	   0.2174	  21.4050	  24.8500	
 -20.0000	  29.0000	  12.5000	  -0.4348	   0.6304	   0.2717	  61.8625	  38.6800	
 -17.5000	  29.0000	  12.5000	  -0.3804	   0.6304	   0.2717	  60.4069	  41.0681	
 -15.0000	  29.0000	  12.5000	  -0.3261	   0.6304	   0.2717	  58.9513	  43.4563	
 -12.5000	  29.0000	  12.5000	  -0.2717	   0.6304	   0.2717	  57.4956	  45.8444	
 -10.0000	  29.0000	  12.5000	  -0.2174	   0.6304	   0.2717	  55.3443	  47.5035	
  -7.5000	  29.0000	  12.5000	  -0.1630	   0.6304	   0.2717	  50.5263	  46.3681	
  -5.0000	  29.0000	  12.5000	  -0.1087	   0.6304	   0.2717	  45.0125	  44.5037	
  -2.5000	  29.0000	  12.5000	  -0.0543	   0.6304	   0.2717	  39.4988	  42.6394	
   0.0000	  29.0000	  12.5000	   0.0000	   0.6304	   0.2717	  34.8038	  40.8874	
   2.5000	  29.0000	  12.5000	   0.0543	   0.6304	   0.2717	  33.2475	  39.5662	
   5.0000	  29.0000	  12.5000	   0.1087	   0.6304	   0.2717	  32.5100	  38.3575	
   7.5000	  29.0000	  12.5000	   0.1630	   0.6304	   0.2717	  31.7725	  37.1487	
  10.0000	  29.0000	  12.5000	   0.2174	   0.6304	   0.2717	  30.6363	  35.5601	
  12.5000	  29.0000	  12.5000	   0.2717	   0.6304	   0.2717	  27.9719	  32.5150	
  15.0000	  29.0000	  12.5000	   0.3261	   0.6304	   0.2717	  24.9088	  29.0900	
  17.5000	  29.0000	  12.5000	   0.3804	   0.6304	   0.2717	  21.8456	  25.6650	
  20.0000	  29.0000	  12.5000	   0.4348	   0.6304	   0.2717	  18.7825	  22.2400	
 -20.0000	  29.0000	  15.0000	  -0.4348	   0.6304	   0.3261	  58.0400	  36.3600	
 -17.5000	  29.0000	  15.0000	  -0.3804	   0.6304	   0.3261	  56.9576	  38.4265	
 -15.0000	  29.0000	  15.0000	  -0.3261	   0.6304	   0.3261	  55.8094	  40.4597	
 -12.5000	  29.0000	  15.0000	  -0.2717	   0.6304	   0.3261	  54.7964	  42.4840	
 -10.0000	  29.0000	  15.0000	  -0.2174	   0.6304	   0.3261	  54.1700	  44.5200	
  -7.5000	  29.0000	  15.0000	  -0.1630	   0.6304	   0.3261	  48.2604	  42.3013	
  -5.0000	  29.0000	  15.0000	  -0.1087	   0.6304	   0.3261	  42.7072	  40.1475	
  -2.5000	  29.0000	  15.0000	  -0.0543	   0.6304	   0.3261	  37.3496	  37.8783	
   0.0000	  29.0000	  15.0000	   0.0000	   0.6304	   0.3261	  32.1000	  35.2700	
   2.5000	  29.0000	  15.0000	   0.0543	   0.6304	   0.3261	  30.2353	  34.3505	
   5.0000	  29.0000	  15.0000	   0.1087	   0.6304	   0.3261	  28.6819	  33.2072	
   7.5000	  29.0000	  15.0000	   0.1630	   0.6304	   0.3261	  26.9174	  31.7178	
  10.0000	  29.0000	  15.0000	   0.2174	   0.6304	   0.3261	  24.3400	  29.6300	
  12.5000	  29.0000	  15.0000	   0.2717	   0.6304	   0.3261	  23.0621	  27.7760	
  15.0000	  29.0000	  15.0000	   0.3261	   0.6304	   0.3261	  21.0483	  25.3047	
  17.5000	  29.0000	  15.0000	   0.3804	   0.6304	   0.3261	  18.6696	  22.5250	
  20.0000	  29.0000	  15.0000	   0.4348	   0.6304	   0.3261	  16.1600	  19.6300	
 -20.0000	  29.0000	  17.5000	  -0.4348	   0.6304	   0.3804	  54.2075	  34.2600	
 -17.5000	  29.0000	  17.5000	  -0.3804	   0.6304	   0.3804	  53.0681	  35.8863	
 -15.0000	  29.0000	  17.5000	  -0.3261	   0.6304	   0.3804	  51.9288	  37.5125	
 -12.5000	  29.0000	  17.5000	  -0.2717	   0.6304	   0.3804	  50.7894	  39.1388	
 -10.0000	  29.0000	  17.5000	  -0.2174	   0.6304	   0.3804	  48.9610	  40.1140	
  -7.5000	  29.0000	  17.5000	  -0.1630	   0.6304	   0.3804	  44.4913	  38.5938	
  -5.0000	  29.0000	  17.5000	  -0.1087	   0.6304	   0.3804	  39.3325	  36.4225	
  -2.5000	  29.0000	  17.5000	  -0.0543	   0.6304	   0.3804	  34.1737	  34.2512	
   0.0000	  29.0000	  17.5000	   0.0000	   0.6304	   0.3804	  29.6417	  32.2696	
   2.5000	  29.0000	  17.5000	   0.0543	   0.6304	   0.3804	  27.5119	  31.0150	
   5.0000	  29.0000	  17.5000	   0.1087	   0.6304	   0.3804	  26.0087	  29.9500	
   7.5000	  29.0000	  17.5000	   0.1630	   0.6304	   0.3804	  24.5056	  28.8850	
  10.0000	  29.0000	  17.5000	   0.2174	   0.6304	   0.3804	  22.9329	  27.6071	
  12.5000	  29.0000	  17.5000	   0.2717	   0.6304	   0.3804	  21.0931	  25.5131	
  15.0000	  29.0000	  17.5000	   0.3261	   0.6304	   0.3804	  19.1837	  23.2063	
  17.5000	  29.0000	  17.5000	   0.3804	   0.6304	   0.3804	  17.2744	  20.8994	
  20.0000	  29.0000	  17.5000	   0.4348	   0.6304	   0.3804	  15.3650	  18.5925	
 -20.0000	  29.0000	  20.0000	  -0.4348	   0.6304	   0.4348	  50.3750	  32.1600	
 -17.5000	  29.0000	  20.0000	  -0.3804	   0.6304	   0.4348	  49.0637	  33.3725	
 -15.0000	  29.0000	  20.0000	  -0.3261	   0.6304	   0.4348	  47.7525	  34.5850	
 -12.5000	  29.0000	  20.0000	  -0.2717	   0.6304	   0.4348	  46.4413	  35.7975	
 -10.0000	  29.0000	  20.0000	  -0.2174	   0.6304	   0.4348	  44.3547	  36.2894	
  -7.5000	  29.0000	  20.0000	  -0.1630	   0.6304	   0.4348	  40.3300	  34.9800	
  -5.0000	  29.0000	  20.0000	  -0.1087	   0.6304	   0.4348	  35.5300	  32.9500	
  -2.5000	  29.0000	  20.0000	  -0.0543	   0.6304	   0.4348	  30.7300	  30.9200	
   0.0000	  29.0000	  20.0000	   0.0000	   0.6304	   0.4348	  26.7597	  29.1811	
   2.5000	  29.0000	  20.0000	   0.0543	   0.6304	   0.4348	  24.8638	  28.1700	
   5.0000	  29.0000	  20.0000	   0.1087	   0.6304	   0.4348	  23.7975	  27.4500	
   7.5000	  29.0000	  20.0000	   0.1630	   0.6304	   0.4348	  22.7312	  26.7300	
  10.0000	  29.0000	  20.0000	   0.2174	   0.6304	   0.4348	  21.5078	  25.7003	
  12.5000	  29.0000	  20.0000	   0.2717	   0.6304	   0.4348	  19.8912	  23.8962	
  15.0000	  29.0000	  20.0000	   0.3261	   0.6304	   0.4348	  18.1175	  21.7825	
  17.5000	  29.0000	  20.0000	   0.3804	   0.6304	   0.4348	  16.3438	  19.6688	
  20.0000	  29.0000	  20.0000	   0.4348	   0.6304	   0.4348	  14.5700	  17.5550	
 -20.0000	  29.0000	  22.5000	  -0.4348	   0.6304	   0.4891	  46.5425	  30.0600	
 -17.5000	  29.0000	  22.5000	  -0.3804	   0.6304	   0.4891	  45.0594	  30.8588	
 -15.0000	  29.0000	  22.5000	  -0.3261	   0.6304	   0.4891	  43.5763	  31.6575	
 -12.5000	  29.0000	  22.5000	  -0.2717	   0.6304	   0.4891	  42.0931	  32.4562	
 -10.0000	  29.0000	  22.5000	  -0.2174	   0.6304	   0.4891	  40.1029	  32.7943	
  -7.5000	  29.0000	  22.5000	  -0.1630	   0.6304	   0.4891	  36.1688	  31.3662	
  -5.0000	  29.0000	  22.5000	  -0.1087	   0.6304	   0.4891	  31.7275	  29.4775	
  -2.5000	  29.0000	  22.5000	  -0.0543	   0.6304	   0.4891	  27.2863	  27.5888	
   0.0000	  29.0000	  22.5000	   0.0000	   0.6304	   0.4891	  23.4985	  25.9595	
   2.5000	  29.0000	  22.5000	   0.0543	   0.6304	   0.4891	  22.2156	  25.3250	
   5.0000	  29.0000	  22.5000	   0.1087	   0.6304	   0.4891	  21.5862	  24.9500	
   7.5000	  29.0000	  22.5000	   0.1630	   0.6304	   0.4891	  20.9569	  24.5750	
  10.0000	  29.0000	  22.5000	   0.2174	   0.6304	   0.4891	  20.1546	  23.9350	
  12.5000	  29.0000	  22.5000	   0.2717	   0.6304	   0.4891	  18.6894	  22.2794	
  15.0000	  29.0000	  22.5000	   0.3261	   0.6304	   0.4891	  17.0512	  20.3587	
  17.5000	  29.0000	  22.5000	   0.3804	   0.6304	   0.4891	  15.4131	  18.4381	
  20.0000	  29.0000	  22.5000	   0.4348	   0.6304	   0.4891	  13.7750	  16.5175	
 -20.0000	  29.0000	  25.0000	  -0.4348	   0.6304	   0.5435	  42.7100	  27.9600	
 -17.5000	  29.0000	  25.0000	  -0.3804	   0.6304	   0.5435	  41.1423	  28.5262	
 -15.0000	  29.0000	  25.0000	  -0.3261	   0.6304	   0.5435	  39.5897	  29.0475	
 -12.5000	  29.0000	  25.0000	  -0.2717	   0.6304	   0.5435	  37.9504	  29.4237	
 -10.0000	  29.0000	  25.0000	  -0.2174	   0.6304	   0.5435	  36.0900	  29.5000	
  -7.5000	  29.0000	  25.0000	  -0.1630	   0.6304	   0.5435	  32.3193	  28.1391	
  -5.0000	  29.0000	  25.0000	  -0.1087	   0.6304	   0.5435	  28.3906	  26.5244	
  -2.5000	  29.0000	  25.0000	  -0.0543	   0.6304	   0.5435	  24.2490	  24.6724	
   0.0000	  29.0000	  25.0000	   0.0000	   0.6304	   0.5435	  19.7600	  22.5100	
   2.5000	  29.0000	  25.0000	   0.0543	   0.6304	   0.5435	  19.8808	  22.7904	
   5.0000	  29.0000	  25.0000	   0.1087	   0.6304	   0.5435	  19.5989	  22.6986	
   7.5000	  29.0000	  25.0000	   0.1630	   0.6304	   0.5435	  19.2146	  22.4932	
  10.0000	  29.0000	  25.0000	   0.2174	   0.6304	   0.5435	  18.9900	  22.3900	
  12.5000	  29.0000	  25.0000	   0.2717	   0.6304	   0.5435	  17.4112	  20.6389	
  15.0000	  29.0000	  25.0000	   0.3261	   0.6304	   0.5435	  15.9278	  18.9328	
  17.5000	  29.0000	  25.0000	   0.3804	   0.6304	   0.5435	  14.4705	  17.2276	
  20.0000	  29.0000	  25.0000	   0.4348	   0.6304	   0.5435	  12.9800	  15.4800	
 -20.0000	  29.0000	  27.5000	  -0.4348	   0.6304	   0.5978	  39.0425	  26.5450	
 -17.5000	  29.0000	  27.5000	  -0.3804	   0.6304	   0.5978	  37.5600	  26.8881	
 -15.0000	  29.0000	  27.5000	  -0.3261	   0.6304	   0.5978	  36.0775	  27.2312	
 -12.5000	  29.0000	  27.5000	  -0.2717	   0.6304	   0.5978	  34.5950	  27.5744	
 -10.0000	  29.0000	  27.5000	  -0.2174	   0.6304	   0.5978	  32.7756	  27.5975	
  -7.5000	  29.0000	  27.5000	  -0.1630	   0.6304	   0.5978	  29.6650	  26.3937	
  -5.0000	  29.0000	  27.5000	  -0.1087	   0.6304	   0.5978	  26.2175	  24.8700	
  -2.5000	  29.0000	  27.5000	  -0.0543	   0.6304	   0.5978	  22.7700	  23.3462	
   0.0000	  29.0000	  27.5000	   0.0000	   0.6304	   0.5978	  19.8148	  22.0191	
   2.5000	  29.0000	  27.5000	   0.0543	   0.6304	   0.5978	  18.7469	  21.4456	
   5.0000	  29.0000	  27.5000	   0.1087	   0.6304	   0.5978	  18.1713	  21.0688	
   7.5000	  29.0000	  27.5000	   0.1630	   0.6304	   0.5978	  17.5956	  20.6919	
  10.0000	  29.0000	  27.5000	   0.2174	   0.6304	   0.5978	  16.9165	  20.1384	
  12.5000	  29.0000	  27.5000	   0.2717	   0.6304	   0.5978	  15.8406	  18.9081	
  15.0000	  29.0000	  27.5000	   0.3261	   0.6304	   0.5978	  14.6613	  17.5012	
  17.5000	  29.0000	  27.5000	   0.3804	   0.6304	   0.5978	  13.4819	  16.0944	
  20.0000	  29.0000	  27.5000	   0.4348	   0.6304	   0.5978	  12.3025	  14.6875	
 -20.0000	  29.0000	  30.0000	  -0.4348	   0.6304	   0.6522	  35.3750	  25.1300	
 -17.5000	  29.0000	  30.0000	  -0.3804	   0.6304	   0.6522	  34.0650	  25.4312	
 -15.0000	  29.0000	  30.0000	  -0.3261	   0.6304	   0.6522	  32.7550	  25.7325	
 -12.5000	  29.0000	  30.0000	  -0.2717	   0.6304	   0.6522	  31.4450	  26.0337	
 -10.0000	  29.0000	  30.0000	  -0.2174	   0.6304	   0.6522	  29.8011	  25.9792	
  -7.5000	  29.0000	  30.0000	  -0.1630	   0.6304	   0.6522	  27.3225	  25.0350	
  -5.0000	  29.0000	  30.0000	  -0.1087	   0.6304	   0.6522	  24.5100	  23.7350	
  -2.5000	  29.0000	  30.0000	  -0.0543	   0.6304	   0.6522	  21.6975	  22.4350	
   0.0000	  29.0000	  30.0000	   0.0000	   0.6304	   0.6522	  19.2969	  21.2631	
   2.5000	  29.0000	  30.0000	   0.0543	   0.6304	   0.6522	  17.9263	  20.4113	
   5.0000	  29.0000	  30.0000	   0.1087	   0.6304	   0.6522	  16.9675	  19.6875	
   7.5000	  29.0000	  30.0000	   0.1630	   0.6304	   0.6522	  16.0087	  18.9637	
  10.0000	  29.0000	  30.0000	   0.2174	   0.6304	   0.6522	  15.0728	  18.1594	
  12.5000	  29.0000	  30.0000	   0.2717	   0.6304	   0.6522	  14.1937	  17.1537	
  15.0000	  29.0000	  30.0000	   0.3261	   0.6304	   0.6522	  13.3375	  16.0675	
  17.5000	  29.0000	  30.0000	   0.3804	   0.6304	   0.6522	  12.4812	  14.9813	
  20.0000	  29.0000	  30.0000	   0.4348	   0.6304	   0.6522	  11.6250	  13.8950	
 -20.0000	  29.0000	  32.5000	  -0.4348	   0.6304	   0.7065	  31.7075	  23.7150	
 -17.5000	  29.0000	  32.5000	  -0.3804	   0.6304	   0.7065	  30.5700	  23.9744	
 -15.0000	  29.0000	  32.5000	  -0.3261	   0.6304	   0.7065	  29.4325	  24.2338	
 -12.5000	  29.0000	  32.5000	  -0.2717	   0.6304	   0.7065	  28.2950	  24.4931	
 -10.0000	  29.0000	  32.5000	  -0.2174	   0.6304	   0.7065	  26.9792	  24.5235	
  -7.5000	  29.0000	  32.5000	  -0.1630	   0.6304	   0.7065	  24.9800	  23.6763	
  -5.0000	  29.0000	  32.5000	  -0.1087	   0.6304	   0.7065	  22.8025	  22.6000	
  -2.5000	  29.0000	  32.5000	  -0.0543	   0.6304	   0.7065	  20.6250	  21.5237	
   0.0000	  29.0000	  32.5000	   0.0000	   0.6304	   0.7065	  18.5907	  20.4485	
   2.5000	  29.0000	  32.5000	   0.0543	   0.6304	   0.7065	  17.1056	  19.3769	
   5.0000	  29.0000	  32.5000	   0.1087	   0.6304	   0.7065	  15.7637	  18.3062	
   7.5000	  29.0000	  32.5000	   0.1630	   0.6304	   0.7065	  14.4219	  17.2356	
  10.0000	  29.0000	  32.5000	   0.2174	   0.6304	   0.7065	  13.2186	  16.2173	
  12.5000	  29.0000	  32.5000	   0.2717	   0.6304	   0.7065	  12.5469	  15.3994	
  15.0000	  29.0000	  32.5000	   0.3261	   0.6304	   0.7065	  12.0137	  14.6337	
  17.5000	  29.0000	  32.5000	   0.3804	   0.6304	   0.7065	  11.4806	  13.8681	
  20.0000	  29.0000	  32.5000	   0.4348	   0.6304	   0.7065	  10.9475	  13.1025	
 -20.0000	  29.0000	  35.0000	  -0.4348	   0.6304	   0.7609	  28.0400	  22.3000	
 -17.5000	  29.0000	  35.0000	  -0.3804	   0.6304	   0.7609	  27.3204	  22.5351	
 -15.0000	  29.0000	  35.0000	  -0.3261	   0.6304	   0.7609	  26.3844	  22.7650	
 -12.5000	  29.0000	  35.0000	  -0.2717	   0.6304	   0.7609	  25.3231	  22.9812	
 -10.0000	  29.0000	  35.0000	  -0.2174	   0.6304	   0.7609	  24.1800	  23.1700	
  -7.5000	  29.0000	  35.0000	  -0.1630	   0.6304	   0.7609	  22.6752	  22.3069	
  -5.0000	  29.0000	  35.0000	  -0.1087	   0.6304	   0.7609	  21.0056	  21.3931	
  -2.5000	  29.0000	  35.0000	  -0.0543	   0.6304	   0.7609	  19.3768	  20.5121	
   0.0000	  29.0000	  35.0000	   0.0000	   0.6304	   0.7609	  18.0100	  19.7600	
   2.5000	  29.0000	  35.0000	   0.0543	   0.6304	   0.7609	  16.1487	  18.3110	
   5.0000	  29.0000	  35.0000	   0.1087	   0.6304	   0.7609	  14.5728	  17.0317	
   7.5000	  29.0000	  35.0000	   0.1630	   0.6304	   0.7609	  12.9910	  15.7036	
  10.0000	  29.0000	  35.0000	   0.2174	   0.6304	   0.7609	  11.1100	  14.0900	
  12.5000	  29.0000	  35.0000	   0.2717	   0.6304	   0.7609	  11.1399	  13.8915	
  15.0000	  29.0000	  35.0000	   0.3261	   0.6304	   0.7609	  10.9203	  13.4375	
  17.5000	  29.0000	  35.0000	   0.3804	   0.6304	   0.7609	  10.5954	  12.8749	
  20.0000	  29.0000	  35.0000	   0.4348	   0.6304	   0.7609	  10.2700	  12.3100	
 -20.0000	  29.0000	  37.5000	  -0.4348	   0.6304	   0.8152	  26.0000	  20.9550	
 -17.5000	  29.0000	  37.5000	  -0.3804	   0.6304	   0.8152	  25.0112	  21.1631	
 -15.0000	  29.0000	  37.5000	  -0.3261	   0.6304	   0.8152	  24.0225	  21.3712	
 -12.5000	  29.0000	  37.5000	  -0.2717	   0.6304	   0.8152	  23.0338	  21.5794	
 -10.0000	  29.0000	  37.5000	  -0.2174	   0.6304	   0.8152	  21.9522	  21.5991	
  -7.5000	  29.0000	  37.5000	  -0.1630	   0.6304	   0.8152	  20.5150	  20.8969	
  -5.0000	  29.0000	  37.5000	  -0.1087	   0.6304	   0.8152	  18.9850	  20.0063	
  -2.5000	  29.0000	  37.5000	  -0.0543	   0.6304	   0.8152	  17.4550	  19.1156	
   0.0000	  29.0000	  37.5000	   0.0000	   0.6304	   0.8152	  15.9720	  18.1890	
   2.5000	  29.0000	  37.5000	   0.0543	   0.6304	   0.8152	  14.6694	  17.1244	
   5.0000	  29.0000	  37.5000	   0.1087	   0.6304	   0.8152	  13.4138	  16.0237	
   7.5000	  29.0000	  37.5000	   0.1630	   0.6304	   0.8152	  12.1581	  14.9231	
  10.0000	  29.0000	  37.5000	   0.2174	   0.6304	   0.8152	  11.0749	  13.9265	
  12.5000	  29.0000	  37.5000	   0.2717	   0.6304	   0.8152	  10.6525	  13.3288	
  15.0000	  29.0000	  37.5000	   0.3261	   0.6304	   0.8152	  10.4025	  12.8350	
  17.5000	  29.0000	  37.5000	   0.3804	   0.6304	   0.8152	  10.1525	  12.3413	
  20.0000	  29.0000	  37.5000	   0.4348	   0.6304	   0.8152	   9.9025	  11.8475	
 -20.0000	  29.0000	  40.0000	  -0.4348	   0.6304	   0.8696	  23.9600	  19.6100	
 -17.5000	  29.0000	  40.0000	  -0.3804	   0.6304	   0.8696	  22.9475	  19.8087	
 -15.0000	  29.0000	  40.0000	  -0.3261	   0.6304	   0.8696	  21.9350	  20.0075	
 -12.5000	  29.0000	  40.0000	  -0.2717	   0.6304	   0.8696	  20.9225	  20.2063	
 -10.0000	  29.0000	  40.0000	  -0.2174	   0.6304	   0.8696	  19.7978	  20.1544	
  -7.5000	  29.0000	  40.0000	  -0.1630	   0.6304	   0.8696	  18.3925	  19.4762	
  -5.0000	  29.0000	  40.0000	  -0.1087	   0.6304	   0.8696	  16.8750	  18.5475	
  -2.5000	  29.0000	  40.0000	  -0.0543	   0.6304	   0.8696	  15.3575	  17.6187	
   0.0000	  29.0000	  40.0000	   0.0000	   0.6304	   0.8696	  14.0025	  16.7222	
   2.5000	  29.0000	  40.0000	   0.0543	   0.6304	   0.8696	  13.0538	  15.9063	
   5.0000	  29.0000	  40.0000	   0.1087	   0.6304	   0.8696	  12.2675	  15.1225	
   7.5000	  29.0000	  40.0000	   0.1630	   0.6304	   0.8696	  11.4812	  14.3388	
  10.0000	  29.0000	  40.0000	   0.2174	   0.6304	   0.8696	  10.8053	  13.6086	
  12.5000	  29.0000	  40.0000	   0.2717	   0.6304	   0.8696	  10.4050	  13.0125	
  15.0000	  29.0000	  40.0000	   0.3261	   0.6304	   0.8696	  10.1150	  12.4700	
  17.5000	  29.0000	  40.0000	   0.3804	   0.6304	   0.8696	   9.8250	  11.9275	
  20.0000	  29.0000	  40.0000	   0.4348	   0.6304	   0.8696	   9.5350	  11.3850	
 -20.0000	  29.0000	  42.5000	  -0.4348	   0.6304	   0.9239	  21.9200	  18.2650	
 -17.5000	  29.0000	  42.5000	  -0.3804	   0.6304	   0.9239	  20.8837	  18.4544	
 -15.0000	  29.0000	  42.5000	  -0.3261	   0.6304	   0.9239	  19.8475	  18.6438	
 -12.5000	  29.0000	  42.5000	  -0.2717	   0.6304	   0.9239	  18.8113	  18.8331	
 -10.0000	  29.0000	  42.5000	  -0.2174	   0.6304	   0.9239	  17.6946	  18.8243	
  -7.5000	  29.0000	  42.5000	  -0.1630	   0.6304	   0.9239	  16.2700	  18.0556	
  -5.0000	  29.0000	  42.5000	  -0.1087	   0.6304	   0.9239	  14.7650	  17.0887	
  -2.5000	  29.0000	  42.5000	  -0.0543	   0.6304	   0.9239	  13.2600	  16.1219	
   0.0000	  29.0000	  42.5000	   0.0000	   0.6304	   0.9239	  11.9587	  15.2407	
   2.5000	  29.0000	  42.5000	   0.0543	   0.6304	   0.9239	  11.4381	  14.6881	
   5.0000	  29.0000	  42.5000	   0.1087	   0.6304	   0.9239	  11.1212	  14.2212	
   7.5000	  29.0000	  42.5000	   0.1630	   0.6304	   0.9239	  10.8044	  13.7544	
  10.0000	  29.0000	  42.5000	   0.2174	   0.6304	   0.9239	  10.4853	  13.2662	
  12.5000	  29.0000	  42.5000	   0.2717	   0.6304	   0.9239	  10.1575	  12.6962	
  15.0000	  29.0000	  42.5000	   0.3261	   0.6304	   0.9239	   9.8275	  12.1050	
  17.5000	  29.0000	  42.5000	   0.3804	   0.6304	   0.9239	   9.4975	  11.5138	
  20.0000	  29.0000	  42.5000	   0.4348	   0.6304	   0.9239	   9.1675	  10.9225	
 -20.0000	  29.0000	  45.0000	  -0.4348	   0.6304	   0.9783	  19.8800	  16.9200	
 -17.5000	  29.0000	  45.0000	  -0.3804	   0.6304	   0.9783	  18.5190	  16.9025	
 -15.0000	  29.0000	  45.0000	  -0.3261	   0.6304	   0.9783	  17.4358	  17.0275	
 -12.5000	  29.0000	  45.0000	  -0.2717	   0.6304	   0.9783	  16.5008	  17.2679	
 -10.0000	  29.0000	  45.0000	  -0.2174	   0.6304	   0.9783	  15.6400	  17.6400	
  -7.5000	  29.0000	  45.0000	  -0.1630	   0.6304	   0.9783	  14.0786	  16.5167	
  -5.0000	  29.0000	  45.0000	  -0.1087	   0.6304	   0.9783	  12.6686	  15.5689	
  -2.5000	  29.0000	  45.0000	  -0.0543	   0.6304	   0.9783	  11.2524	  14.6490	
   0.0000	  29.0000	  45.0000	   0.0000	   0.6304	   0.9783	   9.6700	  13.6200	
   2.5000	  29.0000	  45.0000	   0.0543	   0.6304	   0.9783	   9.9096	  13.5115	
   5.0000	  29.0000	  45.0000	   0.1087	   0.6304	   0.9783	   9.9814	  13.3042	
   7.5000	  29.0000	  45.0000	   0.1630	   0.6304	   0.9783	  10.0503	  13.1041	
  10.0000	  29.0000	  45.0000	   0.2174	   0.6304	   0.9783	  10.2800	  13.0200	
  12.5000	  29.0000	  45.0000	   0.2717	   0.6304	   0.9783	   9.7814	  12.3003	
  15.0000	  29.0000	  45.0000	   0.3261	   0.6304	   0.9783	   9.4133	  11.6883	
  17.5000	  29.0000	  45.0000	   0.3804	   0.6304	   0.9783	   9.1031	  11.1000	
  20.0000	  29.0000	  45.0000	   0.4348	   0.6304	   0.9783	   8.8000	  10.4600	
 -20.0000	  29.0000	  47.5000	  -0.4348	   0.6304	   1.0326	  15.7875	  14.4075	
 -17.5000	  29.0000	  47.5000	  -0.3804	   0.6304	   1.0326	  15.0006	  14.5938	
 -15.0000	  29.0000	  47.5000	  -0.3261	   0.6304	   1.0326	  14.2138	  14.7800	
 -12.5000	  29.0000	  47.5000	  -0.2717	   0.6304	   1.0326	  13.4269	  14.9662	
 -10.0000	  29.0000	  47.5000	  -0.2174	   0.6304	   1.0326	  12.6006	  15.0129	
  -7.5000	  29.0000	  47.5000	  -0.1630	   0.6304	   1.0326	  11.6231	  14.5244	
  -5.0000	  29.0000	  47.5000	  -0.1087	   0.6304	   1.0326	  10.6063	  13.8963	
  -2.5000	  29.0000	  47.5000	  -0.0543	   0.6304	   1.0326	   9.5894	  13.2681	
   0.0000	  29.0000	  47.5000	   0.0000	   0.6304	   1.0326	   8.7713	  12.7226	
   2.5000	  29.0000	  47.5000	   0.0543	   0.6304	   1.0326	   8.7150	  12.4937	
   5.0000	  29.0000	  47.5000	   0.1087	   0.6304	   1.0326	   8.8575	  12.3475	
   7.5000	  29.0000	  47.5000	   0.1630	   0.6304	   1.0326	   9.0000	  12.2012	
  10.0000	  29.0000	  47.5000	   0.2174	   0.6304	   1.0326	   9.0786	  12.0019	
  12.5000	  29.0000	  47.5000	   0.2717	   0.6304	   1.0326	   8.9125	  11.5987	
  15.0000	  29.0000	  47.5000	   0.3261	   0.6304	   1.0326	   8.6825	  11.1425	
  17.5000	  29.0000	  47.5000	   0.3804	   0.6304	   1.0326	   8.4525	  10.6863	
  20.0000	  29.0000	  47.5000	   0.4348	   0.6304	   1.0326	   8.2225	  10.2300	
 -20.0000	  29.0000	  50.0000	  -0.4348	   0.6304	   1.0870	  11.6950	  11.8950	
 -17.5000	  29.0000	  50.0000	  -0.3804	   0.6304	   1.0870	  11.1812	  12.0875	
 -15.0000	  29.0000	  50.0000	  -0.3261	   0.6304	   1.0870	  10.6675	  12.2800	
 -12.5000	  29.0000	  50.0000	  -0.2717	   0.6304	   1.0870	  10.1537	  12.4725	
 -10.0000	  29.0000	  50.0000	  -0.2174	   0.6304	   1.0870	   9.6339	  12.5664	
  -7.5000	  29.0000	  50.0000	  -0.1630	   0.6304	   1.0870	   9.0987	  12.4137	
  -5.0000	  29.0000	  50.0000	  -0.1087	   0.6304	   1.0870	   8.5575	  12.1625	
  -2.5000	  29.0000	  50.0000	  -0.0543	   0.6304	   1.0870	   8.0162	  11.9112	
   0.0000	  29.0000	  50.0000	   0.0000	   0.6304	   1.0870	   7.6247	  11.6842	
   2.5000	  29.0000	  50.0000	   0.0543	   0.6304	   1.0870	   7.6075	  11.5175	
   5.0000	  29.0000	  50.0000	   0.1087	   0.6304	   1.0870	   7.7400	  11.3750	
   7.5000	  29.0000	  50.0000	   0.1630	   0.6304	   1.0870	   7.8725	  11.2325	
  10.0000	  29.0000	  50.0000	   0.2174	   0.6304	   1.0870	   7.9556	  11.0611	
  12.5000	  29.0000	  50.0000	   0.2717	   0.6304	   1.0870	   7.9150	  10.8175	
  15.0000	  29.0000	  50.0000	   0.3261	   0.6304	   1.0870	   7.8250	  10.5450	
  17.5000	  29.0000	  50.0000	   0.3804	   0.6304	   1.0870	   7.7350	  10.2725	
  20.0000	  29.0000	  50.0000	   0.4348	   0.6304	   1.0870	   7.6450	  10.0000	
 -20.0000	  29.0000	  52.5000	  -0.4348	   0.6304	   1.1413	   7.6025	   9.3825	
 -17.5000	  29.0000	  52.5000	  -0.3804	   0.6304	   1.1413	   7.3619	   9.5813	
 -15.0000	  29.0000	  52.5000	  -0.3261	   0.6304	   1.1413	   7.1212	   9.7800	
 -12.5000	  29.0000	  52.5000	  -0.2717	   0.6304	   1.1413	   6.8806	   9.9788	
 -10.0000	  29.0000	  52.5000	  -0.2174	   0.6304	   1.1413	   6.6700	  10.1650	
  -7.5000	  29.0000	  52.5000	  -0.1630	   0.6304	   1.1413	   6.5744	  10.3031	
  -5.0000	  29.0000	  52.5000	  -0.1087	   0.6304	   1.1413	   6.5087	  10.4287	
  -2.5000	  29.0000	  52.5000	  -0.0543	   0.6304	   1.1413	   6.4431	  10.5544	
   0.0000	  29.0000	  52.5000	   0.0000	   0.6304	   1.1413	   6.4098	  10.6347	
   2.5000	  29.0000	  52.5000	   0.0543	   0.6304	   1.1413	   6.5000	  10.5412	
   5.0000	  29.0000	  52.5000	   0.1087	   0.6304	   1.1413	   6.6225	  10.4025	
   7.5000	  29.0000	  52.5000	   0.1630	   0.6304	   1.1413	   6.7450	  10.2637	
  10.0000	  29.0000	  52.5000	   0.2174	   0.6304	   1.1413	   6.8551	  10.1336	
  12.5000	  29.0000	  52.5000	   0.2717	   0.6304	   1.1413	   6.9175	  10.0362	
  15.0000	  29.0000	  52.5000	   0.3261	   0.6304	   1.1413	   6.9675	   9.9475	
  17.5000	  29.0000	  52.5000	   0.3804	   0.6304	   1.1413	   7.0175	   9.8587	
  20.0000	  29.0000	  52.5000	   0.4348	   0.6304	   1.1413	   7.0675	   9.7700	
 -20.0000	  29.0000	  55.0000	  -0.4348	   0.6304	   1.1957	   3.5100	   6.8700	
 -17.5000	  29.0000	  55.0000	  -0.3804	   0.6304	   1.1957	   4.0886	   7.3122	
 -15.0000	  29.0000	  55.0000	  -0.3261	   0.6304	   1.1957	   4.2297	   7.5983	
 -12.5000	  29.0000	  55.0000	  -0.2717	   0.6304	   1.1957	   4.0715	   7.7389	
 -10.0000	  29.0000	  55.0000	  -0.2174	   0.6304	   1.1957	   3.6400	   7.6900	
  -7.5000	  29.0000	  55.0000	  -0.1630	   0.6304	   1.1957	   4.3781	   8.3798	
  -5.0000	  29.0000	  55.0000	  -0.1087	   0.6304	   1.1957	   4.7622	   8.8406	
  -2.5000	  29.0000	  55.0000	  -0.0543	   0.6304	   1.1957	   5.0082	   9.2348	
   0.0000	  29.0000	  55.0000	   0.0000	   0.6304	   1.1957	   5.2800	   9.7000	
   2.5000	  29.0000	  55.0000	   0.0543	   0.6304	   1.1957	   5.4359	   9.5312	
   5.0000	  29.0000	  55.0000	   0.1087	   0.6304	   1.1957	   5.5614	   9.3914	
   7.5000	  29.0000	  55.0000	   0.1630	   0.6304	   1.1957	   5.6611	   9.2692	
  10.0000	  29.0000	  55.0000	   0.2174	   0.6304	   1.1957	   5.7300	   9.1600	
  12.5000	  29.0000	  55.0000	   0.2717	   0.6304	   1.1957	   5.9488	   9.2188	
  15.0000	  29.0000	  55.0000	   0.3261	   0.6304	   1.1957	   6.1281	   9.2844	
  17.5000	  29.0000	  55.0000	   0.3804	   0.6304	   1.1957	   6.2990	   9.3801	
  20.0000	  29.0000	  55.0000	   0.4348	   0.6304	   1.1957	   6.4900	   9.5400	
 -20.0000	  29.0000	  57.5000	  -0.4348	   0.6304	   1.2500	   2.8425	   5.6925	
 -17.5000	  29.0000	  57.5000	  -0.3804	   0.6304	   1.2500	   2.9087	   5.9525	
 -15.0000	  29.0000	  57.5000	  -0.3261	   0.6304	   1.2500	   2.9750	   6.2125	
 -12.5000	  29.0000	  57.5000	  -0.2717	   0.6304	   1.2500	   3.0412	   6.4725	
 -10.0000	  29.0000	  57.5000	  -0.2174	   0.6304	   1.2500	   3.1530	   6.7637	
  -7.5000	  29.0000	  57.5000	  -0.1630	   0.6304	   1.2500	   3.4394	   7.1744	
  -5.0000	  29.0000	  57.5000	  -0.1087	   0.6304	   1.2500	   3.7713	   7.6163	