Variables = "x [mm]"	"y [mm]"	"z [mm]"	"x/B"	"y/B"	"z/B"	"C*"	"C*std"	
Zone T = "West_y=-85mm_Tec" I=17 J=25 F=POINT
 -20.0000	 -85.0000	   5.0000	  -0.4348	  -1.8478	   0.1087	  82.0100	  42.3600	
 -17.5000	 -85.0000	   5.0000	  -0.3804	  -1.8478	   0.1087	  76.6575	  51.6925	
 -15.0000	 -85.0000	   5.0000	  -0.3261	  -1.8478	   0.1087	  71.3050	  61.0250	
 -12.5000	 -85.0000	   5.0000	  -0.2717	  -1.8478	   0.1087	  65.9525	  70.3575	
 -10.0000	 -85.0000	   5.0000	  -0.2174	  -1.8478	   0.1087	  60.6000	  79.6900	
  -7.5000	 -85.0000	   5.0000	  -0.1630	  -1.8478	   0.1087	  48.6550	  69.1225	
  -5.0000	 -85.0000	   5.0000	  -0.1087	  -1.8478	   0.1087	  36.7100	  58.5550	
  -2.5000	 -85.0000	   5.0000	  -0.0543	  -1.8478	   0.1087	  24.7650	  47.9875	
   0.0000	 -85.0000	   5.0000	   0.0000	  -1.8478	   0.1087	  12.8200	  37.4200	
   2.5000	 -85.0000	   5.0000	   0.0543	  -1.8478	   0.1087	  10.8350	  31.3725	
   5.0000	 -85.0000	   5.0000	   0.1087	  -1.8478	   0.1087	   8.8500	  25.3250	
   7.5000	 -85.0000	   5.0000	   0.1630	  -1.8478	   0.1087	   6.8650	  19.2775	
  10.0000	 -85.0000	   5.0000	   0.2174	  -1.8478	   0.1087	   4.8800	  13.2300	
  12.5000	 -85.0000	   5.0000	   0.2717	  -1.8478	   0.1087	   4.5125	  11.3675	
  15.0000	 -85.0000	   5.0000	   0.3261	  -1.8478	   0.1087	   4.1450	   9.5050	
  17.5000	 -85.0000	   5.0000	   0.3804	  -1.8478	   0.1087	   3.7775	   7.6425	
  20.0000	 -85.0000	   5.0000	   0.4348	  -1.8478	   0.1087	   3.4100	   5.7800	
 -20.0000	 -85.0000	   7.5000	  -0.4348	  -1.8478	   0.1630	  68.6750	  38.1450	
 -17.5000	 -85.0000	   7.5000	  -0.3804	  -1.8478	   0.1630	  64.1056	  45.2737	
 -15.0000	 -85.0000	   7.5000	  -0.3261	  -1.8478	   0.1630	  59.5363	  52.4025	
 -12.5000	 -85.0000	   7.5000	  -0.2717	  -1.8478	   0.1630	  54.9669	  59.5313	
 -10.0000	 -85.0000	   7.5000	  -0.2174	  -1.8478	   0.1630	  49.5173	  63.9205	
  -7.5000	 -85.0000	   7.5000	  -0.1630	  -1.8478	   0.1630	  40.6938	  57.8081	
  -5.0000	 -85.0000	   7.5000	  -0.1087	  -1.8478	   0.1630	  30.9900	  48.9563	
  -2.5000	 -85.0000	   7.5000	  -0.0543	  -1.8478	   0.1630	  21.2863	  40.1044	
   0.0000	 -85.0000	   7.5000	   0.0000	  -1.8478	   0.1630	  12.9493	  31.9208	
   2.5000	 -85.0000	   7.5000	   0.0543	  -1.8478	   0.1630	   9.8519	  26.2988	
   5.0000	 -85.0000	   7.5000	   0.1087	  -1.8478	   0.1630	   8.1213	  21.3450	
   7.5000	 -85.0000	   7.5000	   0.1630	  -1.8478	   0.1630	   6.3906	  16.3912	
  10.0000	 -85.0000	   7.5000	   0.2174	  -1.8478	   0.1630	   4.8966	  12.0270	
  12.5000	 -85.0000	   7.5000	   0.2717	  -1.8478	   0.1630	   4.3094	   9.9225	
  15.0000	 -85.0000	   7.5000	   0.3261	  -1.8478	   0.1630	   3.9588	   8.4075	
  17.5000	 -85.0000	   7.5000	   0.3804	  -1.8478	   0.1630	   3.6081	   6.8925	
  20.0000	 -85.0000	   7.5000	   0.4348	  -1.8478	   0.1630	   3.2575	   5.3775	
 -20.0000	 -85.0000	  10.0000	  -0.4348	  -1.8478	   0.2174	  55.3400	  33.9300	
 -17.5000	 -85.0000	  10.0000	  -0.3804	  -1.8478	   0.2174	  51.5538	  38.8550	
 -15.0000	 -85.0000	  10.0000	  -0.3261	  -1.8478	   0.2174	  47.7675	  43.7800	
 -12.5000	 -85.0000	  10.0000	  -0.2717	  -1.8478	   0.2174	  43.9813	  48.7050	
 -10.0000	 -85.0000	  10.0000	  -0.2174	  -1.8478	   0.2174	  39.3781	  50.9497	
  -7.5000	 -85.0000	  10.0000	  -0.1630	  -1.8478	   0.2174	  32.7325	  46.4938	
  -5.0000	 -85.0000	  10.0000	  -0.1087	  -1.8478	   0.2174	  25.2700	  39.3575	
  -2.5000	 -85.0000	  10.0000	  -0.0543	  -1.8478	   0.2174	  17.8075	  32.2212	
   0.0000	 -85.0000	  10.0000	   0.0000	  -1.8478	   0.2174	  11.6753	  25.8131	
   2.5000	 -85.0000	  10.0000	   0.0543	  -1.8478	   0.2174	   8.8688	  21.2250	
   5.0000	 -85.0000	  10.0000	   0.1087	  -1.8478	   0.2174	   7.3925	  17.3650	
   7.5000	 -85.0000	  10.0000	   0.1630	  -1.8478	   0.2174	   5.9162	  13.5050	
  10.0000	 -85.0000	  10.0000	   0.2174	  -1.8478	   0.2174	   4.6939	  10.2433	
  12.5000	 -85.0000	  10.0000	   0.2717	  -1.8478	   0.2174	   4.1062	   8.4775	
  15.0000	 -85.0000	  10.0000	   0.3261	  -1.8478	   0.2174	   3.7725	   7.3100	
  17.5000	 -85.0000	  10.0000	   0.3804	  -1.8478	   0.2174	   3.4388	   6.1425	
  20.0000	 -85.0000	  10.0000	   0.4348	  -1.8478	   0.2174	   3.1050	   4.9750	
 -20.0000	 -85.0000	  12.5000	  -0.4348	  -1.8478	   0.2717	  42.0050	  29.7150	
 -17.5000	 -85.0000	  12.5000	  -0.3804	  -1.8478	   0.2717	  39.0019	  32.4363	
 -15.0000	 -85.0000	  12.5000	  -0.3261	  -1.8478	   0.2717	  35.9988	  35.1575	
 -12.5000	 -85.0000	  12.5000	  -0.2717	  -1.8478	   0.2717	  32.9956	  37.8788	
 -10.0000	 -85.0000	  12.5000	  -0.2174	  -1.8478	   0.2717	  29.6122	  39.2043	
  -7.5000	 -85.0000	  12.5000	  -0.1630	  -1.8478	   0.2717	  24.7713	  35.1794	
  -5.0000	 -85.0000	  12.5000	  -0.1087	  -1.8478	   0.2717	  19.5500	  29.7587	
  -2.5000	 -85.0000	  12.5000	  -0.0543	  -1.8478	   0.2717	  14.3287	  24.3381	
   0.0000	 -85.0000	  12.5000	   0.0000	  -1.8478	   0.2717	   9.7931	  19.3725	
   2.5000	 -85.0000	  12.5000	   0.0543	  -1.8478	   0.2717	   7.8856	  16.1513	
   5.0000	 -85.0000	  12.5000	   0.1087	  -1.8478	   0.2717	   6.6638	  13.3850	
   7.5000	 -85.0000	  12.5000	   0.1630	  -1.8478	   0.2717	   5.4419	  10.6187	
  10.0000	 -85.0000	  12.5000	   0.2174	  -1.8478	   0.2717	   4.3751	   8.1861	
  12.5000	 -85.0000	  12.5000	   0.2717	  -1.8478	   0.2717	   3.9031	   7.0325	
  15.0000	 -85.0000	  12.5000	   0.3261	  -1.8478	   0.2717	   3.5863	   6.2125	
  17.5000	 -85.0000	  12.5000	   0.3804	  -1.8478	   0.2717	   3.2694	   5.3925	
  20.0000	 -85.0000	  12.5000	   0.4348	  -1.8478	   0.2717	   2.9525	   4.5725	
 -20.0000	 -85.0000	  15.0000	  -0.4348	  -1.8478	   0.3261	  28.6700	  25.5000	
 -17.5000	 -85.0000	  15.0000	  -0.3804	  -1.8478	   0.3261	  28.5157	  27.0153	
 -15.0000	 -85.0000	  15.0000	  -0.3261	  -1.8478	   0.3261	  26.6411	  28.1447	
 -12.5000	 -85.0000	  15.0000	  -0.2717	  -1.8478	   0.3261	  23.6643	  28.5382	
 -10.0000	 -85.0000	  15.0000	  -0.2174	  -1.8478	   0.3261	  19.7900	  27.5700	
  -7.5000	 -85.0000	  15.0000	  -0.1630	  -1.8478	   0.3261	  17.9310	  25.3835	
  -5.0000	 -85.0000	  15.0000	  -0.1087	  -1.8478	   0.3261	  14.8586	  21.8547	
  -2.5000	 -85.0000	  15.0000	  -0.0543	  -1.8478	   0.3261	  11.3160	  17.5512	
   0.0000	 -85.0000	  15.0000	   0.0000	  -1.8478	   0.3261	   7.8700	  12.7500	
   2.5000	 -85.0000	  15.0000	   0.0543	  -1.8478	   0.3261	   7.0125	  11.8067	
   5.0000	 -85.0000	  15.0000	   0.1087	  -1.8478	   0.3261	   6.0408	  10.1483	
   7.5000	 -85.0000	  15.0000	   0.1630	  -1.8478	   0.3261	   5.0208	   8.1501	
  10.0000	 -85.0000	  15.0000	   0.2174	  -1.8478	   0.3261	   4.0000	   6.0600	
  12.5000	 -85.0000	  15.0000	   0.2717	  -1.8478	   0.3261	   3.7286	   5.8003	
  15.0000	 -85.0000	  15.0000	   0.3261	  -1.8478	   0.3261	   3.4419	   5.3272	
  17.5000	 -85.0000	  15.0000	   0.3804	  -1.8478	   0.3261	   3.1361	   4.7571	
  20.0000	 -85.0000	  15.0000	   0.4348	  -1.8478	   0.3261	   2.8000	   4.1700	
 -20.0000	 -85.0000	  17.5000	  -0.4348	  -1.8478	   0.3804	  28.5850	  25.6825	
 -17.5000	 -85.0000	  17.5000	  -0.3804	  -1.8478	   0.3804	  25.9481	  25.4194	
 -15.0000	 -85.0000	  17.5000	  -0.3261	  -1.8478	   0.3804	  23.3113	  25.1562	
 -12.5000	 -85.0000	  17.5000	  -0.2717	  -1.8478	   0.3804	  20.6744	  24.8931	
 -10.0000	 -85.0000	  17.5000	  -0.2174	  -1.8478	   0.3804	  18.0354	  24.1229	
  -7.5000	 -85.0000	  17.5000	  -0.1630	  -1.8478	   0.3804	  15.3881	  21.4088	
  -5.0000	 -85.0000	  17.5000	  -0.1087	  -1.8478	   0.3804	  12.7387	  18.1875	
  -2.5000	 -85.0000	  17.5000	  -0.0543	  -1.8478	   0.3804	  10.0894	  14.9663	
   0.0000	 -85.0000	  17.5000	   0.0000	  -1.8478	   0.3804	   7.7435	  12.0422	
   2.5000	 -85.0000	  17.5000	   0.0543	  -1.8478	   0.3804	   6.5613	  10.2575	
   5.0000	 -85.0000	  17.5000	   0.1087	  -1.8478	   0.3804	   5.6825	   8.7700	
   7.5000	 -85.0000	  17.5000	   0.1630	  -1.8478	   0.3804	   4.8037	   7.2825	
  10.0000	 -85.0000	  17.5000	   0.2174	  -1.8478	   0.3804	   4.0309	   5.9795	
  12.5000	 -85.0000	  17.5000	   0.2717	  -1.8478	   0.3804	   3.6637	   5.3838	
  15.0000	 -85.0000	  17.5000	   0.3261	  -1.8478	   0.3804	   3.4025	   4.9725	
  17.5000	 -85.0000	  17.5000	   0.3804	  -1.8478	   0.3804	   3.1413	   4.5612	
  20.0000	 -85.0000	  17.5000	   0.4348	  -1.8478	   0.3804	   2.8800	   4.1500	
 -20.0000	 -85.0000	  20.0000	  -0.4348	  -1.8478	   0.4348	  28.5000	  25.8650	
 -17.5000	 -85.0000	  20.0000	  -0.3804	  -1.8478	   0.4348	  25.4462	  24.8212	
 -15.0000	 -85.0000	  20.0000	  -0.3261	  -1.8478	   0.4348	  22.3925	  23.7775	
 -12.5000	 -85.0000	  20.0000	  -0.2717	  -1.8478	   0.4348	  19.3388	  22.7338	
 -10.0000	 -85.0000	  20.0000	  -0.2174	  -1.8478	   0.4348	  16.4483	  21.3136	
  -7.5000	 -85.0000	  20.0000	  -0.1630	  -1.8478	   0.4348	  13.9662	  18.9525	
  -5.0000	 -85.0000	  20.0000	  -0.1087	  -1.8478	   0.4348	  11.6475	  16.2150	
  -2.5000	 -85.0000	  20.0000	  -0.0543	  -1.8478	   0.4348	   9.3287	  13.4775	
   0.0000	 -85.0000	  20.0000	   0.0000	  -1.8478	   0.4348	   7.3497	  11.0589	
   2.5000	 -85.0000	  20.0000	   0.0543	  -1.8478	   0.4348	   6.2200	   9.4375	
   5.0000	 -85.0000	  20.0000	   0.1087	  -1.8478	   0.4348	   5.4300	   8.1350	
   7.5000	 -85.0000	  20.0000	   0.1630	  -1.8478	   0.4348	   4.6400	   6.8325	
  10.0000	 -85.0000	  20.0000	   0.2174	  -1.8478	   0.4348	   3.9761	   5.7417	
  12.5000	 -85.0000	  20.0000	   0.2717	  -1.8478	   0.4348	   3.6275	   5.1800	
  15.0000	 -85.0000	  20.0000	   0.3261	  -1.8478	   0.4348	   3.4050	   4.8300	
  17.5000	 -85.0000	  20.0000	   0.3804	  -1.8478	   0.4348	   3.1825	   4.4800	
  20.0000	 -85.0000	  20.0000	   0.4348	  -1.8478	   0.4348	   2.9600	   4.1300	
 -20.0000	 -85.0000	  22.5000	  -0.4348	  -1.8478	   0.4891	  28.4150	  26.0475	
 -17.5000	 -85.0000	  22.5000	  -0.3804	  -1.8478	   0.4891	  24.9444	  24.2231	
 -15.0000	 -85.0000	  22.5000	  -0.3261	  -1.8478	   0.4891	  21.4737	  22.3987	
 -12.5000	 -85.0000	  22.5000	  -0.2717	  -1.8478	   0.4891	  18.0031	  20.5744	
 -10.0000	 -85.0000	  22.5000	  -0.2174	  -1.8478	   0.4891	  14.7866	  18.6764	
  -7.5000	 -85.0000	  22.5000	  -0.1630	  -1.8478	   0.4891	  12.5444	  16.4962	
  -5.0000	 -85.0000	  22.5000	  -0.1087	  -1.8478	   0.4891	  10.5563	  14.2425	
  -2.5000	 -85.0000	  22.5000	  -0.0543	  -1.8478	   0.4891	   8.5681	  11.9887	
   0.0000	 -85.0000	  22.5000	   0.0000	  -1.8478	   0.4891	   6.8006	   9.9298	
   2.5000	 -85.0000	  22.5000	   0.0543	  -1.8478	   0.4891	   5.8788	   8.6175	
   5.0000	 -85.0000	  22.5000	   0.1087	  -1.8478	   0.4891	   5.1775	   7.5000	
   7.5000	 -85.0000	  22.5000	   0.1630	  -1.8478	   0.4891	   4.4763	   6.3825	
  10.0000	 -85.0000	  22.5000	   0.2174	  -1.8478	   0.4891	   3.8637	   5.4071	
  12.5000	 -85.0000	  22.5000	   0.2717	  -1.8478	   0.4891	   3.5913	   4.9763	
  15.0000	 -85.0000	  22.5000	   0.3261	  -1.8478	   0.4891	   3.4075	   4.6875	
  17.5000	 -85.0000	  22.5000	   0.3804	  -1.8478	   0.4891	   3.2238	   4.3987	
  20.0000	 -85.0000	  22.5000	   0.4348	  -1.8478	   0.4891	   3.0400	   4.1100	
 -20.0000	 -85.0000	  25.0000	  -0.4348	  -1.8478	   0.5435	  28.3300	  26.2300	
 -17.5000	 -85.0000	  25.0000	  -0.3804	  -1.8478	   0.5435	  24.3536	  23.5447	
 -15.0000	 -85.0000	  25.0000	  -0.3261	  -1.8478	   0.5435	  20.5844	  21.1408	
 -12.5000	 -85.0000	  25.0000	  -0.2717	  -1.8478	   0.5435	  16.8019	  18.6817	
 -10.0000	 -85.0000	  25.0000	  -0.2174	  -1.8478	   0.5435	  12.7800	  15.8100	
  -7.5000	 -85.0000	  25.0000	  -0.1630	  -1.8478	   0.5435	  11.3296	  14.4145	
  -5.0000	 -85.0000	  25.0000	  -0.1087	  -1.8478	   0.5435	   9.6831	  12.6703	
  -2.5000	 -85.0000	  25.0000	  -0.0543	  -1.8478	   0.5435	   7.9368	  10.7431	
   0.0000	 -85.0000	  25.0000	   0.0000	  -1.8478	   0.5435	   6.1500	   8.7300	
   2.5000	 -85.0000	  25.0000	   0.0543	  -1.8478	   0.5435	   5.6194	   7.9462	
   5.0000	 -85.0000	  25.0000	   0.1087	  -1.8478	   0.5435	   5.0200	   7.0206	
   7.5000	 -85.0000	  25.0000	   0.1630	  -1.8478	   0.5435	   4.3772	   6.0238	
  10.0000	 -85.0000	  25.0000	   0.2174	  -1.8478	   0.5435	   3.7000	   5.0000	
  12.5000	 -85.0000	  25.0000	   0.2717	  -1.8478	   0.5435	   3.6054	   4.8262	
  15.0000	 -85.0000	  25.0000	   0.3261	  -1.8478	   0.5435	   3.4678	   4.6031	
  17.5000	 -85.0000	  25.0000	   0.3804	  -1.8478	   0.5435	   3.3038	   4.3534	
  20.0000	 -85.0000	  25.0000	   0.4348	  -1.8478	   0.5435	   3.1200	   4.0900	
 -20.0000	 -85.0000	  27.5000	  -0.4348	  -1.8478	   0.5978	  27.0750	  24.9325	
 -17.5000	 -85.0000	  27.5000	  -0.3804	  -1.8478	   0.5978	  23.4219	  22.5587	
 -15.0000	 -85.0000	  27.5000	  -0.3261	  -1.8478	   0.5978	  19.7687	  20.1850	
 -12.5000	 -85.0000	  27.5000	  -0.2717	  -1.8478	   0.5978	  16.1156	  17.8113	
 -10.0000	 -85.0000	  27.5000	  -0.2174	  -1.8478	   0.5978	  12.8224	  15.5583	
  -7.5000	 -85.0000	  27.5000	  -0.1630	  -1.8478	   0.5978	  10.9087	  13.7681	
  -5.0000	 -85.0000	  27.5000	  -0.1087	  -1.8478	   0.5978	   9.3550	  12.0987	
  -2.5000	 -85.0000	  27.5000	  -0.0543	  -1.8478	   0.5978	   7.8012	  10.4294	
   0.0000	 -85.0000	  27.5000	   0.0000	  -1.8478	   0.5978	   6.4155	   8.8893	
   2.5000	 -85.0000	  27.5000	   0.0543	  -1.8478	   0.5978	   5.6737	   7.8450	
   5.0000	 -85.0000	  27.5000	   0.1087	  -1.8478	   0.5978	   5.1000	   6.9300	
   7.5000	 -85.0000	  27.5000	   0.1630	  -1.8478	   0.5978	   4.5263	   6.0150	
  10.0000	 -85.0000	  27.5000	   0.2174	  -1.8478	   0.5978	   4.0269	   5.2195	
  12.5000	 -85.0000	  27.5000	   0.2717	  -1.8478	   0.5978	   3.8125	   4.8819	
  15.0000	 -85.0000	  27.5000	   0.3261	  -1.8478	   0.5978	   3.6725	   4.6637	
  17.5000	 -85.0000	  27.5000	   0.3804	  -1.8478	   0.5978	   3.5325	   4.4456	
  20.0000	 -85.0000	  27.5000	   0.4348	  -1.8478	   0.5978	   3.3925	   4.2275	
 -20.0000	 -85.0000	  30.0000	  -0.4348	  -1.8478	   0.6522	  25.8200	  23.6350	
 -17.5000	 -85.0000	  30.0000	  -0.3804	  -1.8478	   0.6522	  22.4012	  21.4925	
 -15.0000	 -85.0000	  30.0000	  -0.3261	  -1.8478	   0.6522	  18.9825	  19.3500	
 -12.5000	 -85.0000	  30.0000	  -0.2717	  -1.8478	   0.6522	  15.5637	  17.2075	
 -10.0000	 -85.0000	  30.0000	  -0.2174	  -1.8478	   0.6522	  12.5825	  15.1925	
  -7.5000	 -85.0000	  30.0000	  -0.1630	  -1.8478	   0.6522	  10.6950	  13.4962	
  -5.0000	 -85.0000	  30.0000	  -0.1087	  -1.8478	   0.6522	   9.2450	  11.9275	
  -2.5000	 -85.0000	  30.0000	  -0.0543	  -1.8478	   0.6522	   7.7950	  10.3587	
   0.0000	 -85.0000	  30.0000	   0.0000	  -1.8478	   0.6522	   6.5483	   8.9392	
   2.5000	 -85.0000	  30.0000	   0.0543	  -1.8478	   0.6522	   5.8100	   7.8925	
   5.0000	 -85.0000	  30.0000	   0.1087	  -1.8478	   0.6522	   5.2750	   6.9950	
   7.5000	 -85.0000	  30.0000	   0.1630	  -1.8478	   0.6522	   4.7400	   6.0975	
  10.0000	 -85.0000	  30.0000	   0.2174	  -1.8478	   0.6522	   4.2939	   5.3531	
  12.5000	 -85.0000	  30.0000	   0.2717	  -1.8478	   0.6522	   4.0700	   4.9912	
  15.0000	 -85.0000	  30.0000	   0.3261	  -1.8478	   0.6522	   3.9350	   4.7825	
  17.5000	 -85.0000	  30.0000	   0.3804	  -1.8478	   0.6522	   3.8000	   4.5738	
  20.0000	 -85.0000	  30.0000	   0.4348	  -1.8478	   0.6522	   3.6650	   4.3650	
 -20.0000	 -85.0000	  32.5000	  -0.4348	  -1.8478	   0.7065	  24.5650	  22.3375	
 -17.5000	 -85.0000	  32.5000	  -0.3804	  -1.8478	   0.7065	  21.3806	  20.4262	
 -15.0000	 -85.0000	  32.5000	  -0.3261	  -1.8478	   0.7065	  18.1962	  18.5150	
 -12.5000	 -85.0000	  32.5000	  -0.2717	  -1.8478	   0.7065	  15.0119	  16.6037	
 -10.0000	 -85.0000	  32.5000	  -0.2174	  -1.8478	   0.7065	  12.1426	  14.7685	
  -7.5000	 -85.0000	  32.5000	  -0.1630	  -1.8478	   0.7065	  10.4813	  13.2244	
  -5.0000	 -85.0000	  32.5000	  -0.1087	  -1.8478	   0.7065	   9.1350	  11.7562	
  -2.5000	 -85.0000	  32.5000	  -0.0543	  -1.8478	   0.7065	   7.7888	  10.2881	
   0.0000	 -85.0000	  32.5000	   0.0000	  -1.8478	   0.7065	   6.5882	   8.9208	
   2.5000	 -85.0000	  32.5000	   0.0543	  -1.8478	   0.7065	   5.9463	   7.9400	
   5.0000	 -85.0000	  32.5000	   0.1087	  -1.8478	   0.7065	   5.4500	   7.0600	
   7.5000	 -85.0000	  32.5000	   0.1630	  -1.8478	   0.7065	   4.9538	   6.1800	
  10.0000	 -85.0000	  32.5000	   0.2174	  -1.8478	   0.7065	   4.5203	   5.4167	
  12.5000	 -85.0000	  32.5000	   0.2717	  -1.8478	   0.7065	   4.3275	   5.1006	
  15.0000	 -85.0000	  32.5000	   0.3261	  -1.8478	   0.7065	   4.1975	   4.9012	
  17.5000	 -85.0000	  32.5000	   0.3804	  -1.8478	   0.7065	   4.0675	   4.7019	
  20.0000	 -85.0000	  32.5000	   0.4348	  -1.8478	   0.7065	   3.9375	   4.5025	
 -20.0000	 -85.0000	  35.0000	  -0.4348	  -1.8478	   0.7609	  23.3100	  21.0400	
 -17.5000	 -85.0000	  35.0000	  -0.3804	  -1.8478	   0.7609	  20.4059	  19.4300	
 -15.0000	 -85.0000	  35.0000	  -0.3261	  -1.8478	   0.7609	  17.4750	  17.7492	
 -12.5000	 -85.0000	  35.0000	  -0.2717	  -1.8478	   0.7609	  14.5144	  16.0368	
 -10.0000	 -85.0000	  35.0000	  -0.2174	  -1.8478	   0.7609	  11.5100	  14.3200	
  -7.5000	 -85.0000	  35.0000	  -0.1630	  -1.8478	   0.7609	  10.3203	  12.9791	
  -5.0000	 -85.0000	  35.0000	  -0.1087	  -1.8478	   0.7609	   9.0858	  11.6278	
  -2.5000	 -85.0000	  35.0000	  -0.0543	  -1.8478	   0.7609	   7.8235	  10.2569	
   0.0000	 -85.0000	  35.0000	   0.0000	  -1.8478	   0.7609	   6.5400	   8.8500	
   2.5000	 -85.0000	  35.0000	   0.0543	  -1.8478	   0.7609	   6.1110	   8.0369	
   5.0000	 -85.0000	  35.0000	   0.1087	  -1.8478	   0.7609	   5.6533	   7.1936	
   7.5000	 -85.0000	  35.0000	   0.1630	  -1.8478	   0.7609	   5.1827	   6.3190	
  10.0000	 -85.0000	  35.0000	   0.2174	  -1.8478	   0.7609	   4.7100	   5.4000	
  12.5000	 -85.0000	  35.0000	   0.2717	  -1.8478	   0.7609	   4.5812	   5.2526	
  15.0000	 -85.0000	  35.0000	   0.3261	  -1.8478	   0.7609	   4.4392	   5.0528	
  17.5000	 -85.0000	  35.0000	   0.3804	  -1.8478	   0.7609	   4.3066	   4.8379	
  20.0000	 -85.0000	  35.0000	   0.4348	  -1.8478	   0.7609	   4.2100	   4.6400	
 -20.0000	 -85.0000	  37.5000	  -0.4348	  -1.8478	   0.8152	  22.2975	  20.2475	
 -17.5000	 -85.0000	  37.5000	  -0.3804	  -1.8478	   0.8152	  19.6069	  18.7019	
 -15.0000	 -85.0000	  37.5000	  -0.3261	  -1.8478	   0.8152	  16.9162	  17.1562	
 -12.5000	 -85.0000	  37.5000	  -0.2717	  -1.8478	   0.8152	  14.2256	  15.6106	
 -10.0000	 -85.0000	  37.5000	  -0.2174	  -1.8478	   0.8152	  11.7951	  14.1192	
  -7.5000	 -85.0000	  37.5000	  -0.1630	  -1.8478	   0.8152	  10.3619	  12.8356	
  -5.0000	 -85.0000	  37.5000	  -0.1087	  -1.8478	   0.8152	   9.1887	  11.6062	
  -2.5000	 -85.0000	  37.5000	  -0.0543	  -1.8478	   0.8152	   8.0156	  10.3769	
   0.0000	 -85.0000	  37.5000	   0.0000	  -1.8478	   0.8152	   6.9652	   9.2169	
   2.5000	 -85.0000	  37.5000	   0.0543	  -1.8478	   0.8152	   6.3850	   8.3231	
   5.0000	 -85.0000	  37.5000	   0.1087	  -1.8478	   0.8152	   5.9275	   7.4987	
   7.5000	 -85.0000	  37.5000	   0.1630	  -1.8478	   0.8152	   5.4700	   6.6744	
  10.0000	 -85.0000	  37.5000	   0.2174	  -1.8478	   0.8152	   5.0580	   5.9430	
  12.5000	 -85.0000	  37.5000	   0.2717	  -1.8478	   0.8152	   4.8206	   5.5681	
  15.0000	 -85.0000	  37.5000	   0.3261	  -1.8478	   0.8152	   4.6288	   5.2862	
  17.5000	 -85.0000	  37.5000	   0.3804	  -1.8478	   0.8152	   4.4369	   5.0044	
  20.0000	 -85.0000	  37.5000	   0.4348	  -1.8478	   0.8152	   4.2450	   4.7225	
 -20.0000	 -85.0000	  40.0000	  -0.4348	  -1.8478	   0.8696	  21.2850	  19.4550	
 -17.5000	 -85.0000	  40.0000	  -0.3804	  -1.8478	   0.8696	  18.8537	  18.0437	
 -15.0000	 -85.0000	  40.0000	  -0.3261	  -1.8478	   0.8696	  16.4225	  16.6325	
 -12.5000	 -85.0000	  40.0000	  -0.2717	  -1.8478	   0.8696	  13.9912	  15.2213	
 -10.0000	 -85.0000	  40.0000	  -0.2174	  -1.8478	   0.8696	  11.8550	  13.8811	
  -7.5000	 -85.0000	  40.0000	  -0.1630	  -1.8478	   0.8696	  10.4562	  12.7187	
  -5.0000	 -85.0000	  40.0000	  -0.1087	  -1.8478	   0.8696	   9.3525	  11.6275	
  -2.5000	 -85.0000	  40.0000	  -0.0543	  -1.8478	   0.8696	   8.2487	  10.5362	
   0.0000	 -85.0000	  40.0000	   0.0000	  -1.8478	   0.8696	   7.2886	   9.5128	
   2.5000	 -85.0000	  40.0000	   0.0543	  -1.8478	   0.8696	   6.6875	   8.6587	
   5.0000	 -85.0000	  40.0000	   0.1087	  -1.8478	   0.8696	   6.2300	   7.8725	
   7.5000	 -85.0000	  40.0000	   0.1630	  -1.8478	   0.8696	   5.7725	   7.0863	
  10.0000	 -85.0000	  40.0000	   0.2174	  -1.8478	   0.8696	   5.3592	   6.3917	
  12.5000	 -85.0000	  40.0000	   0.2717	  -1.8478	   0.8696	   5.0562	   5.9262	
  15.0000	 -85.0000	  40.0000	   0.3261	  -1.8478	   0.8696	   4.7975	   5.5525	
  17.5000	 -85.0000	  40.0000	   0.3804	  -1.8478	   0.8696	   4.5388	   5.1788	
  20.0000	 -85.0000	  40.0000	   0.4348	  -1.8478	   0.8696	   4.2800	   4.8050	
 -20.0000	 -85.0000	  42.5000	  -0.4348	  -1.8478	   0.9239	  20.2725	  18.6625	
 -17.5000	 -85.0000	  42.5000	  -0.3804	  -1.8478	   0.9239	  18.1006	  17.3856	
 -15.0000	 -85.0000	  42.5000	  -0.3261	  -1.8478	   0.9239	  15.9288	  16.1088	
 -12.5000	 -85.0000	  42.5000	  -0.2717	  -1.8478	   0.9239	  13.7569	  14.8319	
 -10.0000	 -85.0000	  42.5000	  -0.2174	  -1.8478	   0.9239	  11.7800	  13.6105	
  -7.5000	 -85.0000	  42.5000	  -0.1630	  -1.8478	   0.9239	  10.5506	  12.6019	
  -5.0000	 -85.0000	  42.5000	  -0.1087	  -1.8478	   0.9239	   9.5162	  11.6487	
  -2.5000	 -85.0000	  42.5000	  -0.0543	  -1.8478	   0.9239	   8.4819	  10.6956	
   0.0000	 -85.0000	  42.5000	   0.0000	  -1.8478	   0.9239	   7.5464	   9.7776	
   2.5000	 -85.0000	  42.5000	   0.0543	  -1.8478	   0.9239	   6.9900	   8.9944	
   5.0000	 -85.0000	  42.5000	   0.1087	  -1.8478	   0.9239	   6.5325	   8.2462	
   7.5000	 -85.0000	  42.5000	   0.1630	  -1.8478	   0.9239	   6.0750	   7.4981	
  10.0000	 -85.0000	  42.5000	   0.2174	  -1.8478	   0.9239	   5.6401	   6.7984	
  12.5000	 -85.0000	  42.5000	   0.2717	  -1.8478	   0.9239	   5.2919	   6.2844	
  15.0000	 -85.0000	  42.5000	   0.3261	  -1.8478	   0.9239	   4.9662	   5.8188	
  17.5000	 -85.0000	  42.5000	   0.3804	  -1.8478	   0.9239	   4.6406	   5.3531	
  20.0000	 -85.0000	  42.5000	   0.4348	  -1.8478	   0.9239	   4.3150	   4.8875	
 -20.0000	 -85.0000	  45.0000	  -0.4348	  -1.8478	   0.9783	  19.2600	  17.8700	
 -17.5000	 -85.0000	  45.0000	  -0.3804	  -1.8478	   0.9783	  17.3142	  16.7074	
 -15.0000	 -85.0000	  45.0000	  -0.3261	  -1.8478	   0.9783	  15.3903	  15.5444	
 -12.5000	 -85.0000	  45.0000	  -0.2717	  -1.8478	   0.9783	  13.4868	  14.4001	
 -10.0000	 -85.0000	  45.0000	  -0.2174	  -1.8478	   0.9783	  11.6100	  13.3000	
  -7.5000	 -85.0000	  45.0000	  -0.1630	  -1.8478	   0.9783	  10.6111	  12.4245	
  -5.0000	 -85.0000	  45.0000	  -0.1087	  -1.8478	   0.9783	   9.6400	  11.5825	
  -2.5000	 -85.0000	  45.0000	  -0.0543	  -1.8478	   0.9783	   8.6871	  10.7805	
   0.0000	 -85.0000	  45.0000	   0.0000	  -1.8478	   0.9783	   7.7500	  10.0400	
   2.5000	 -85.0000	  45.0000	   0.0543	  -1.8478	   0.9783	   7.2630	   9.2492	
   5.0000	 -85.0000	  45.0000	   0.1087	  -1.8478	   0.9783	   6.7908	   8.5161	
   7.5000	 -85.0000	  45.0000	   0.1630	  -1.8478	   0.9783	   6.3388	   7.8305	
  10.0000	 -85.0000	  45.0000	   0.2174	  -1.8478	   0.9783	   5.9200	   7.2000	
  12.5000	 -85.0000	  45.0000	   0.2717	  -1.8478	   0.9783	   5.5080	   6.5959	
  15.0000	 -85.0000	  45.0000	   0.3261	  -1.8478	   0.9783	   5.1406	   6.0664	
  17.5000	 -85.0000	  45.0000	   0.3804	  -1.8478	   0.9783	   4.7706	   5.5454	
  20.0000	 -85.0000	  45.0000	   0.4348	  -1.8478	   0.9783	   4.3500	   4.9700	
 -20.0000	 -85.0000	  47.5000	  -0.4348	  -1.8478	   1.0326	  18.0600	  17.0250	
 -17.5000	 -85.0000	  47.5000	  -0.3804	  -1.8478	   1.0326	  16.4000	  15.9519	
 -15.0000	 -85.0000	  47.5000	  -0.3261	  -1.8478	   1.0326	  14.7400	  14.8788	
 -12.5000	 -85.0000	  47.5000	  -0.2717	  -1.8478	   1.0326	  13.0800	  13.8056	
 -10.0000	 -85.0000	  47.5000	  -0.2174	  -1.8478	   1.0326	  11.5540	  12.7935	
  -7.5000	 -85.0000	  47.5000	  -0.1630	  -1.8478	   1.0326	  10.5419	  12.0150	
  -5.0000	 -85.0000	  47.5000	  -0.1087	  -1.8478	   1.0326	   9.6638	  11.2975	
  -2.5000	 -85.0000	  47.5000	  -0.0543	  -1.8478	   1.0326	   8.7856	  10.5800	
   0.0000	 -85.0000	  47.5000	   0.0000	  -1.8478	   1.0326	   7.9750	   9.8710	
   2.5000	 -85.0000	  47.5000	   0.0543	  -1.8478	   1.0326	   7.4231	   9.1944	
   5.0000	 -85.0000	  47.5000	   0.1087	  -1.8478	   1.0326	   6.9387	   8.5262	
   7.5000	 -85.0000	  47.5000	   0.1630	  -1.8478	   1.0326	   6.4544	   7.8581	
  10.0000	 -85.0000	  47.5000	   0.2174	  -1.8478	   1.0326	   5.9981	   7.2255	
  12.5000	 -85.0000	  47.5000	   0.2717	  -1.8478	   1.0326	   5.6494	   6.7287	
  15.0000	 -85.0000	  47.5000	   0.3261	  -1.8478	   1.0326	   5.3287	   6.2675	
  17.5000	 -85.0000	  47.5000	   0.3804	  -1.8478	   1.0326	   5.0081	   5.8062	
  20.0000	 -85.0000	  47.5000	   0.4348	  -1.8478	   1.0326	   4.6875	   5.3450	
 -20.0000	 -85.0000	  50.0000	  -0.4348	  -1.8478	   1.0870	  16.8600	  16.1800	
 -17.5000	 -85.0000	  50.0000	  -0.3804	  -1.8478	   1.0870	  15.4525	  15.1762	
 -15.0000	 -85.0000	  50.0000	  -0.3261	  -1.8478	   1.0870	  14.0450	  14.1725	
 -12.5000	 -85.0000	  50.0000	  -0.2717	  -1.8478	   1.0870	  12.6375	  13.1687	
 -10.0000	 -85.0000	  50.0000	  -0.2174	  -1.8478	   1.0870	  11.3669	  12.2503	
  -7.5000	 -85.0000	  50.0000	  -0.1630	  -1.8478	   1.0870	  10.4387	  11.5450	
  -5.0000	 -85.0000	  50.0000	  -0.1087	  -1.8478	   1.0870	   9.6475	  10.9250	
  -2.5000	 -85.0000	  50.0000	  -0.0543	  -1.8478	   1.0870	   8.8562	  10.3050	
   0.0000	 -85.0000	  50.0000	   0.0000	  -1.8478	   1.0870	   8.1272	   9.6836	
   2.5000	 -85.0000	  50.0000	   0.0543	  -1.8478	   1.0870	   7.5537	   9.0587	
   5.0000	 -85.0000	  50.0000	   0.1087	  -1.8478	   1.0870	   7.0425	   8.4325	
   7.5000	 -85.0000	  50.0000	   0.1630	  -1.8478	   1.0870	   6.5312	   7.8063	
  10.0000	 -85.0000	  50.0000	   0.2174	  -1.8478	   1.0870	   6.0783	   7.2381	
  12.5000	 -85.0000	  50.0000	   0.2717	  -1.8478	   1.0870	   5.7713	   6.8150	
  15.0000	 -85.0000	  50.0000	   0.3261	  -1.8478	   1.0870	   5.5225	   6.4500	
  17.5000	 -85.0000	  50.0000	   0.3804	  -1.8478	   1.0870	   5.2738	   6.0850	
  20.0000	 -85.0000	  50.0000	   0.4348	  -1.8478	   1.0870	   5.0250	   5.7200	
 -20.0000	 -85.0000	  52.5000	  -0.4348	  -1.8478	   1.1413	  15.6600	  15.3350	
 -17.5000	 -85.0000	  52.5000	  -0.3804	  -1.8478	   1.1413	  14.5050	  14.4006	
 -15.0000	 -85.0000	  52.5000	  -0.3261	  -1.8478	   1.1413	  13.3500	  13.4662	
 -12.5000	 -85.0000	  52.5000	  -0.2717	  -1.8478	   1.1413	  12.1950	  12.5319	
 -10.0000	 -85.0000	  52.5000	  -0.2174	  -1.8478	   1.1413	  11.1172	  11.6681	
  -7.5000	 -85.0000	  52.5000	  -0.1630	  -1.8478	   1.1413	  10.3356	  11.0750	
  -5.0000	 -85.0000	  52.5000	  -0.1087	  -1.8478	   1.1413	   9.6313	  10.5525	
  -2.5000	 -85.0000	  52.5000	  -0.0543	  -1.8478	   1.1413	   8.9269	  10.0300	
   0.0000	 -85.0000	  52.5000	   0.0000	  -1.8478	   1.1413	   8.2510	   9.4969	
   2.5000	 -85.0000	  52.5000	   0.0543	  -1.8478	   1.1413	   7.6844	   8.9231	
   5.0000	 -85.0000	  52.5000	   0.1087	  -1.8478	   1.1413	   7.1463	   8.3388	
   7.5000	 -85.0000	  52.5000	   0.1630	  -1.8478	   1.1413	   6.6081	   7.7544	
  10.0000	 -85.0000	  52.5000	   0.2174	  -1.8478	   1.1413	   6.1319	   7.2241	
  12.5000	 -85.0000	  52.5000	   0.2717	  -1.8478	   1.1413	   5.8931	   6.9013	
  15.0000	 -85.0000	  52.5000	   0.3261	  -1.8478	   1.1413	   5.7162	   6.6325	
  17.5000	 -85.0000	  52.5000	   0.3804	  -1.8478	   1.1413	   5.5394	   6.3638	
  20.0000	 -85.0000	  52.5000	   0.4348	  -1.8478	   1.1413	   5.3625	   6.0950	
 -20.0000	 -85.0000	  55.0000	  -0.4348	  -1.8478	   1.1957	  14.4600	  14.4900	
 -17.5000	 -85.0000	  55.0000	  -0.3804	  -1.8478	   1.1957	  13.2977	  13.4230	
 -15.0000	 -85.0000	  55.0000	  -0.3261	  -1.8478	   1.1957	  12.3403	  12.5569	
 -12.5000	 -85.0000	  55.0000	  -0.2717	  -1.8478	   1.1957	  11.5267	  11.7837	
 -10.0000	 -85.0000	  55.0000	  -0.2174	  -1.8478	   1.1957	  10.8500	  11.0300	
  -7.5000	 -85.0000	  55.0000	  -0.1630	  -1.8478	   1.1957	  10.0441	  10.5407	
  -5.0000	 -85.0000	  55.0000	  -0.1087	  -1.8478	   1.1957	   9.3972	  10.0989	
  -2.5000	 -85.0000	  55.0000	  -0.0543	  -1.8478	   1.1957	   8.8499	   9.6941	
   0.0000	 -85.0000	  55.0000	   0.0000	  -1.8478	   1.1957	   8.3800	   9.3300	
   2.5000	 -85.0000	  55.0000	   0.0543	  -1.8478	   1.1957	   7.7059	   8.7289	
   5.0000	 -85.0000	  55.0000	   0.1087	  -1.8478	   1.1957	   7.1322	   8.1697	
   7.5000	 -85.0000	  55.0000	   0.1630	  -1.8478	   1.1957	   6.6124	   7.6450	
  10.0000	 -85.0000	  55.0000	   0.2174	  -1.8478	   1.1957	   6.1200	   7.1600	
  12.5000	 -85.0000	  55.0000	   0.2717	  -1.8478	   1.1957	   5.9505	   6.9190	
  15.0000	 -85.0000	  55.0000	   0.3261	  -1.8478	   1.1957	   5.8133	   6.7114	
  17.5000	 -85.0000	  55.0000	   0.3804	  -1.8478	   1.1957	   5.7204	   6.5511	
  20.0000	 -85.0000	  55.0000	   0.4348	  -1.8478	   1.1957	   5.7000	   6.4700	
 -20.0000	 -85.0000	  57.5000	  -0.4348	  -1.8478	   1.2500	  11.6450	  12.2025	
 -17.5000	 -85.0000	  57.5000	  -0.3804	  -1.8478	   1.2500	  11.0944	  11.6713	
 -15.0000	 -85.0000	  57.5000	  -0.3261	  -1.8478	   1.2500	  10.5438	  11.1400	
 -12.5000	 -85.0000	  57.5000	  -0.2717	  -1.8478	   1.2500	   9.9931	  10.6088	
 -10.0000	 -85.0000	  57.5000	  -0.2174	  -1.8478	   1.2500	   9.4663	  10.1141	
  -7.5000	 -85.0000	  57.5000	  -0.1630	  -1.8478	   1.2500	   9.0306	   9.7600	
  -5.0000	 -85.0000	  57.5000	  -0.1087	  -1.8478	   1.2500	   8.6188	   9.4425	